 3
  Energy=0.18728286954 Properties=species:S:1:pos:R:3:forces:R:3
  H  0.145928  -0.104312   0.926277   0.00292147  -0.00169302  -0.00678039 
  O  0.0382234  0.0198018 -0.0503268  0.000125253 -0.000123191  0.000743004
  H -0.75256    0.574674  -0.127562  -0.00490931   0.00364813  -0.00501157 