
Host: cst14372

Timers On : Tue Dec 30 16:39:54 2025
Timers Off: Tue Dec 30 16:40:01 2025

Wall Time:        6.82 seconds

                                                       Time (seconds)
Module                                       User      System        Wall        Calls

--------------------------------------------------------------------------------------

**************************************************************************************

Host: cst14372

Timers On : Tue Dec 30 16:43:49 2025
Timers Off: Tue Dec 30 16:43:52 2025

Wall Time:        2.75 seconds

                                                       Time (seconds)
Module                                       User      System        Wall        Calls

--------------------------------------------------------------------------------------

**************************************************************************************

Host: cst14372

Timers On : Tue Dec 30 17:03:06 2025
Timers Off: Tue Dec 30 17:03:10 2025

Wall Time:        3.49 seconds

                                                       Time (seconds)
Module                                       User      System        Wall        Calls

--------------------------------------------------------------------------------------

**************************************************************************************

Host: cst14372

Timers On : Tue Dec 30 17:04:14 2025
Timers Off: Tue Dec 30 17:04:15 2025

Wall Time:        0.47 seconds

                                                       Time (seconds)
Module                                       User      System        Wall        Calls

--------------------------------------------------------------------------------------

**************************************************************************************

Host: cst14372

Timers On : Tue Dec 30 17:04:56 2025
Timers Off: Tue Dec 30 17:04:57 2025

Wall Time:        0.50 seconds

                                                       Time (seconds)
Module                                       User      System        Wall        Calls

--------------------------------------------------------------------------------------

**************************************************************************************

Host: cst14372

Timers On : Tue Dec 30 17:05:51 2025
Timers Off: Tue Dec 30 17:06:30 2025

Wall Time:       38.81 seconds

                                                       Time (seconds)
Module                                       User      System        Wall        Calls

--------------------------------------------------------------------------------------

**************************************************************************************

Host: cst14372

Timers On : Tue Dec 30 17:06:48 2025
Timers Off: Tue Dec 30 17:06:49 2025

Wall Time:        0.47 seconds

                                                       Time (seconds)
Module                                       User      System        Wall        Calls

--------------------------------------------------------------------------------------

**************************************************************************************

Host: cst14372

Timers On : Tue Dec 30 17:10:47 2025
Timers Off: Tue Dec 30 17:12:00 2025

Wall Time:       72.57 seconds

                                                       Time (seconds)
Module                                       User      System        Wall        Calls

--------------------------------------------------------------------------------------

**************************************************************************************

Host: cst14372

Timers On : Tue Dec 30 17:18:55 2025
Timers Off: Tue Dec 30 17:19:03 2025

Wall Time:        8.10 seconds

                                                       Time (seconds)
Module                                       User      System        Wall        Calls

--------------------------------------------------------------------------------------

**************************************************************************************

Host: cst14372

Timers On : Tue Dec 30 17:20:14 2025
Timers Off: Tue Dec 30 17:20:33 2025

Wall Time:       18.29 seconds

                                                       Time (seconds)
Module                                       User      System        Wall        Calls
DFH: sparsity prep                  :      0.100u      0.000s      0.034w     51 calls
Libint2ERI::Libint2ERI              :      0.017u      0.050s      0.064w    459 calls
DFH: initialize()                   :      0.417u      0.083s      1.098w     51 calls
DFH: AO Construction                :      0.050u      0.000s      0.011w     51 calls
DFH: AO-Met. Contraction            :      0.050u      0.000s      0.015w     51 calls
HF: Form core H                     :      0.017u      0.017s      0.086w     51 calls
HF: Form S/X                        :      0.000u      0.000s      0.003w     51 calls
HF: Guess                           :      0.833u      0.350s      1.995w     51 calls
SAD Guess                           :      0.783u      0.350s      1.917w     51 calls
HF: Form G                          :      0.017u      0.033s      0.043w    408 calls
JK: D                               :      0.000u      0.000s      0.001w    408 calls
JK: USO2AO                          :      0.000u      0.000s      0.000w    408 calls
JK: JK                              :      0.017u      0.033s      0.039w    408 calls
DFH: compute_JK()                   :      0.017u      0.033s      0.039w    408 calls
DFH: Grabbing AOs                   :      0.000u      0.000s      0.000w    408 calls
DFH: compute_J                      :      0.000u      0.017s      0.009w    408 calls
DFH: compute_K                      :      0.017u      0.000s      0.024w    408 calls
JK: AO2USO                          :      0.000u      0.000s      0.000w    408 calls
HF: Form F                          :      0.000u      0.000s      0.004w    408 calls
HF: Form D                          :      0.000u      0.000s      0.001w    408 calls
HF: DIIS                            :      1.000u      0.050s      0.590w    357 calls
HF: Form C                          :      0.083u      0.000s      0.053w    357 calls
Grad: V T Perturb                   :      0.000u      0.000s      0.007w     51 calls
Grad: S                             :      0.000u      0.000s      0.003w     51 calls
Grad: JK                            :      0.633u      0.217s      0.785w     51 calls
JKGrad: Amn                         :      0.067u      0.017s      0.058w     51 calls
JKGrad: Awmn                        :      0.000u      0.000s      0.000w     51 calls
JKGrad: AB                          :      0.283u      0.050s      0.207w     51 calls
JKGrad: UV                          :      0.050u      0.017s      0.009w     51 calls
JKGrad: ABx                         :      0.100u      0.000s      0.057w     51 calls
JKGrad: Amnx                        :      0.117u      0.000s      0.083w     51 calls
Grad: XC                            :      0.000u      0.000s      0.000w     51 calls

--------------------------------------------------------------------------------------
DFH: sparsity prep                  :      0.100u      0.000s      0.034w     51 calls
| Libint2ERI::Libint2ERI            :      0.017u      0.000s      0.009w     51 calls
DFH: initialize()                   :      0.417u      0.083s      1.098w     51 calls
| Libint2ERI::Libint2ERI            :      0.000u      0.017s      0.019w    153 calls
| DFH: AO Construction              :      0.050u      0.000s      0.011w     51 calls
| DFH: AO-Met. Contraction          :      0.050u      0.000s      0.015w     51 calls
HF: Form core H                     :      0.017u      0.017s      0.086w     51 calls
HF: Form S/X                        :      0.000u      0.000s      0.003w     51 calls
HF: Guess                           :      0.833u      0.350s      1.995w     51 calls
| SAD Guess                         :      0.783u      0.350s      1.917w     51 calls
HF: Form G                          :      0.017u      0.033s      0.043w    408 calls
| JK: D                             :      0.000u      0.000s      0.001w    408 calls
| JK: USO2AO                        :      0.000u      0.000s      0.000w    408 calls
| JK: JK                            :      0.017u      0.033s      0.039w    408 calls
| | DFH: compute_JK()               :      0.017u      0.033s      0.039w    408 calls
| | | DFH: Grabbing AOs             :      0.000u      0.000s      0.000w    408 calls
| | | DFH: compute_J                :      0.000u      0.017s      0.009w    408 calls
| | | DFH: compute_K                :      0.017u      0.000s      0.024w    408 calls
| JK: AO2USO                        :      0.000u      0.000s      0.000w    408 calls
HF: Form F                          :      0.000u      0.000s      0.004w    408 calls
HF: Form D                          :      0.000u      0.000s      0.001w    408 calls
HF: DIIS                            :      1.000u      0.050s      0.590w    357 calls
HF: Form C                          :      0.083u      0.000s      0.053w    357 calls
Grad: V T Perturb                   :      0.000u      0.000s      0.007w     51 calls
Grad: S                             :      0.000u      0.000s      0.003w     51 calls
Grad: JK                            :      0.633u      0.217s      0.785w     51 calls
| JKGrad: Amn                       :      0.067u      0.017s      0.058w     51 calls
| | Libint2ERI::Libint2ERI          :      0.000u      0.017s      0.010w     51 calls
| JKGrad: Awmn                      :      0.000u      0.000s      0.000w     51 calls
| JKGrad: AB                        :      0.283u      0.050s      0.207w     51 calls
| | Libint2ERI::Libint2ERI          :      0.000u      0.017s      0.009w    102 calls
| JKGrad: UV                        :      0.050u      0.017s      0.009w     51 calls
| JKGrad: ABx                       :      0.100u      0.000s      0.057w     51 calls
| | Libint2ERI::Libint2ERI          :      0.000u      0.000s      0.003w     51 calls
| JKGrad: Amnx                      :      0.117u      0.000s      0.083w     51 calls
| | Libint2ERI::Libint2ERI          :      0.000u      0.000s      0.013w     51 calls
Grad: XC                            :      0.000u      0.000s      0.000w     51 calls

**************************************************************************************

Host: cst14372

Timers On : Tue Dec 30 17:24:35 2025
Timers Off: Tue Dec 30 17:24:55 2025

Wall Time:       20.01 seconds

                                                       Time (seconds)
Module                                       User      System        Wall        Calls
DFH: sparsity prep                  :      0.067u      0.000s      0.038w     51 calls
Libint2ERI::Libint2ERI              :      0.050u      0.050s      0.070w    459 calls
DFH: initialize()                   :      0.350u      0.067s      0.950w     51 calls
DFH: AO Construction                :      0.017u      0.000s      0.011w     51 calls
DFH: AO-Met. Contraction            :      0.050u      0.000s      0.015w     51 calls
HF: Form core H                     :      0.017u      0.017s      0.079w     51 calls
HF: Form S/X                        :      0.000u      0.000s      0.003w     51 calls
HF: Guess                           :      0.817u      0.400s      1.838w     51 calls
SAD Guess                           :      0.800u      0.367s      1.767w     51 calls
HF: Form G                          :      0.083u      0.017s      0.042w    408 calls
JK: D                               :      0.000u      0.000s      0.001w    408 calls
JK: USO2AO                          :      0.000u      0.000s      0.000w    408 calls
JK: JK                              :      0.067u      0.017s      0.038w    408 calls
DFH: compute_JK()                   :      0.067u      0.017s      0.037w    408 calls
DFH: Grabbing AOs                   :      0.000u      0.000s      0.000w    408 calls
DFH: compute_J                      :      0.000u      0.000s      0.009w    408 calls
DFH: compute_K                      :      0.067u      0.000s      0.023w    408 calls
JK: AO2USO                          :      0.000u      0.000s      0.000w    408 calls
HF: Form F                          :      0.000u      0.000s      0.003w    408 calls
HF: Form D                          :      0.000u      0.000s      0.001w    408 calls
HF: DIIS                            :      0.900u      0.050s      0.603w    357 calls
HF: Form C                          :      0.050u      0.000s      0.053w    357 calls
Grad: V T Perturb                   :      0.000u      0.000s      0.008w     51 calls
Grad: S                             :      0.000u      0.000s      0.003w     51 calls
Grad: JK                            :      0.633u      0.233s      0.862w     51 calls
JKGrad: Amn                         :      0.067u      0.017s      0.059w     51 calls
JKGrad: Awmn                        :      0.000u      0.000s      0.000w     51 calls
JKGrad: AB                          :      0.350u      0.033s      0.211w     51 calls
JKGrad: UV                          :      0.017u      0.000s      0.009w     51 calls
JKGrad: ABx                         :      0.133u      0.000s      0.056w     51 calls
JKGrad: Amnx                        :      0.067u      0.083s      0.084w     51 calls
Grad: XC                            :      0.000u      0.000s      0.000w     51 calls

--------------------------------------------------------------------------------------
DFH: sparsity prep                  :      0.067u      0.000s      0.038w     51 calls
| Libint2ERI::Libint2ERI            :      0.000u      0.000s      0.012w     51 calls
DFH: initialize()                   :      0.350u      0.067s      0.950w     51 calls
| Libint2ERI::Libint2ERI            :      0.000u      0.017s      0.020w    153 calls
| DFH: AO Construction              :      0.017u      0.000s      0.011w     51 calls
| DFH: AO-Met. Contraction          :      0.050u      0.000s      0.015w     51 calls
HF: Form core H                     :      0.017u      0.017s      0.079w     51 calls
HF: Form S/X                        :      0.000u      0.000s      0.003w     51 calls
HF: Guess                           :      0.817u      0.400s      1.838w     51 calls
| SAD Guess                         :      0.800u      0.367s      1.767w     51 calls
HF: Form G                          :      0.083u      0.017s      0.042w    408 calls
| JK: D                             :      0.000u      0.000s      0.001w    408 calls
| JK: USO2AO                        :      0.000u      0.000s      0.000w    408 calls
| JK: JK                            :      0.067u      0.017s      0.038w    408 calls
| | DFH: compute_JK()               :      0.067u      0.017s      0.037w    408 calls
| | | DFH: Grabbing AOs             :      0.000u      0.000s      0.000w    408 calls
| | | DFH: compute_J                :      0.000u      0.000s      0.009w    408 calls
| | | DFH: compute_K                :      0.067u      0.000s      0.023w    408 calls
| JK: AO2USO                        :      0.000u      0.000s      0.000w    408 calls
HF: Form F                          :      0.000u      0.000s      0.003w    408 calls
HF: Form D                          :      0.000u      0.000s      0.001w    408 calls
HF: DIIS                            :      0.900u      0.050s      0.603w    357 calls
HF: Form C                          :      0.050u      0.000s      0.053w    357 calls
Grad: V T Perturb                   :      0.000u      0.000s      0.008w     51 calls
Grad: S                             :      0.000u      0.000s      0.003w     51 calls
Grad: JK                            :      0.633u      0.233s      0.862w     51 calls
| JKGrad: Amn                       :      0.067u      0.017s      0.059w     51 calls
| | Libint2ERI::Libint2ERI          :      0.017u      0.000s      0.010w     51 calls
| JKGrad: Awmn                      :      0.000u      0.000s      0.000w     51 calls
| JKGrad: AB                        :      0.350u      0.033s      0.211w     51 calls
| | Libint2ERI::Libint2ERI          :      0.000u      0.033s      0.011w    102 calls
| JKGrad: UV                        :      0.017u      0.000s      0.009w     51 calls
| JKGrad: ABx                       :      0.133u      0.000s      0.056w     51 calls
| | Libint2ERI::Libint2ERI          :      0.017u      0.000s      0.004w     51 calls
| JKGrad: Amnx                      :      0.067u      0.083s      0.084w     51 calls
| | Libint2ERI::Libint2ERI          :      0.017u      0.000s      0.012w     51 calls
Grad: XC                            :      0.000u      0.000s      0.000w     51 calls

**************************************************************************************

Host: cst14372

Timers On : Tue Dec 30 17:29:12 2025
Timers Off: Tue Dec 30 17:29:51 2025

Wall Time:       39.22 seconds

                                                       Time (seconds)
Module                                       User      System        Wall        Calls
DFH: sparsity prep                  :      0.033u      0.000s      0.032w     51 calls
Libint2ERI::Libint2ERI              :      0.000u      0.050s      0.060w    459 calls
DFH: initialize()                   :      0.367u      0.083s      1.129w     51 calls
DFH: AO Construction                :      0.067u      0.000s      0.010w     51 calls
DFH: AO-Met. Contraction            :      0.017u      0.000s      0.015w     51 calls
HF: Form core H                     :      0.033u      0.067s      0.068w     51 calls
HF: Form S/X                        :      0.033u      0.000s      0.003w     51 calls
HF: Guess                           :      0.833u      0.283s      1.981w     51 calls
SAD Guess                           :      0.817u      0.267s      1.923w     51 calls
HF: Form G                          :      0.067u      0.033s      0.042w    408 calls
JK: D                               :      0.000u      0.000s      0.001w    408 calls
JK: USO2AO                          :      0.000u      0.000s      0.000w    408 calls
JK: JK                              :      0.067u      0.033s      0.038w    408 calls
DFH: compute_JK()                   :      0.067u      0.033s      0.038w    408 calls
DFH: Grabbing AOs                   :      0.000u      0.000s      0.000w    408 calls
DFH: compute_J                      :      0.017u      0.000s      0.009w    408 calls
DFH: compute_K                      :      0.050u      0.017s      0.023w    408 calls
JK: AO2USO                          :      0.000u      0.000s      0.000w    408 calls
HF: Form F                          :      0.000u      0.000s      0.004w    408 calls
HF: Form D                          :      0.000u      0.000s      0.001w    408 calls
HF: DIIS                            :      0.767u      0.067s      0.599w    357 calls
HF: Form C                          :      0.017u      0.000s      0.053w    357 calls
Grad: V T Perturb                   :      0.033u      0.000s      0.006w     51 calls
Grad: S                             :      0.000u      0.000s      0.003w     51 calls
Grad: JK                            :      0.633u      0.217s      0.873w     51 calls
JKGrad: Amn                         :      0.067u      0.017s      0.067w     51 calls
JKGrad: Awmn                        :      0.000u      0.000s      0.000w     51 calls
JKGrad: AB                          :      0.283u      0.083s      0.204w     51 calls
JKGrad: UV                          :      0.017u      0.000s      0.009w     51 calls
JKGrad: ABx                         :      0.150u      0.017s      0.053w     51 calls
JKGrad: Amnx                        :      0.100u      0.050s      0.079w     51 calls
Grad: XC                            :      0.000u      0.000s      0.000w     51 calls

--------------------------------------------------------------------------------------
DFH: sparsity prep                  :      0.033u      0.000s      0.032w     51 calls
| Libint2ERI::Libint2ERI            :      0.000u      0.000s      0.007w     51 calls
DFH: initialize()                   :      0.367u      0.083s      1.129w     51 calls
| Libint2ERI::Libint2ERI            :      0.000u      0.017s      0.019w    153 calls
| DFH: AO Construction              :      0.067u      0.000s      0.010w     51 calls
| DFH: AO-Met. Contraction          :      0.017u      0.000s      0.015w     51 calls
HF: Form core H                     :      0.033u      0.067s      0.068w     51 calls
HF: Form S/X                        :      0.033u      0.000s      0.003w     51 calls
HF: Guess                           :      0.833u      0.283s      1.981w     51 calls
| SAD Guess                         :      0.817u      0.267s      1.923w     51 calls
HF: Form G                          :      0.067u      0.033s      0.042w    408 calls
| JK: D                             :      0.000u      0.000s      0.001w    408 calls
| JK: USO2AO                        :      0.000u      0.000s      0.000w    408 calls
| JK: JK                            :      0.067u      0.033s      0.038w    408 calls
| | DFH: compute_JK()               :      0.067u      0.033s      0.038w    408 calls
| | | DFH: Grabbing AOs             :      0.000u      0.000s      0.000w    408 calls
| | | DFH: compute_J                :      0.017u      0.000s      0.009w    408 calls
| | | DFH: compute_K                :      0.050u      0.017s      0.023w    408 calls
| JK: AO2USO                        :      0.000u      0.000s      0.000w    408 calls
HF: Form F                          :      0.000u      0.000s      0.004w    408 calls
HF: Form D                          :      0.000u      0.000s      0.001w    408 calls
HF: DIIS                            :      0.767u      0.067s      0.599w    357 calls
HF: Form C                          :      0.017u      0.000s      0.053w    357 calls
Grad: V T Perturb                   :      0.033u      0.000s      0.006w     51 calls
Grad: S                             :      0.000u      0.000s      0.003w     51 calls
Grad: JK                            :      0.633u      0.217s      0.873w     51 calls
| JKGrad: Amn                       :      0.067u      0.017s      0.067w     51 calls
| | Libint2ERI::Libint2ERI          :      0.000u      0.000s      0.009w     51 calls
| JKGrad: Awmn                      :      0.000u      0.000s      0.000w     51 calls
| JKGrad: AB                        :      0.283u      0.083s      0.204w     51 calls
| | Libint2ERI::Libint2ERI          :      0.000u      0.017s      0.009w    102 calls
| JKGrad: UV                        :      0.017u      0.000s      0.009w     51 calls
| JKGrad: ABx                       :      0.150u      0.017s      0.053w     51 calls
| | Libint2ERI::Libint2ERI          :      0.000u      0.000s      0.003w     51 calls
| JKGrad: Amnx                      :      0.100u      0.050s      0.079w     51 calls
| | Libint2ERI::Libint2ERI          :      0.000u      0.017s      0.012w     51 calls
Grad: XC                            :      0.000u      0.000s      0.000w     51 calls

**************************************************************************************

Host: cst14372

Timers On : Tue Dec 30 17:41:38 2025
Timers Off: Tue Dec 30 17:44:11 2025

Wall Time:      152.31 seconds

                                                       Time (seconds)
Module                                       User      System        Wall        Calls
DFH: sparsity prep                  :      0.600u      0.083s      0.400w    624 calls
Libint2ERI::Libint2ERI              :      0.767u      0.450s      0.651w   4410 calls
DFH: initialize()                   :      5.050u      1.083s     13.933w    624 calls
DFH: AO Construction                :      0.317u      0.000s      0.202w    624 calls
DFH: AO-Met. Contraction            :      0.550u      0.033s      0.305w    624 calls
HF: Form core H                     :      0.117u      0.300s      0.834w    624 calls
HF: Form S/X                        :      0.050u      0.000s      0.028w    624 calls
HF: Guess                           :      9.667u      2.250s     22.887w    624 calls
SAD Guess                           :      9.100u      2.067s     22.189w    624 calls
HF: Form G                          :      0.633u      0.083s      0.460w   5168 calls
JK: D                               :      0.000u      0.000s      0.006w   5168 calls
JK: USO2AO                          :      0.000u      0.000s      0.005w   5168 calls
JK: JK                              :      0.567u      0.050s      0.415w   5168 calls
DFH: compute_JK()                   :      0.567u      0.033s      0.406w   5168 calls
DFH: Grabbing AOs                   :      0.017u      0.000s      0.003w   5168 calls
DFH: compute_J                      :      0.033u      0.017s      0.045w   5168 calls
DFH: compute_K                      :      0.500u      0.000s      0.332w   5168 calls
JK: AO2USO                          :      0.000u      0.000s      0.003w   5168 calls
HF: Form F                          :      0.033u      0.017s      0.012w   5168 calls
HF: Form D                          :      0.000u      0.000s      0.008w   5168 calls
HF: DIIS                            :     10.500u      0.850s      7.399w   4544 calls
HF: Form C                          :      1.350u      0.000s      0.678w   4544 calls
Grad: V T Perturb                   :      0.133u      0.000s      0.047w    624 calls
Grad: S                             :      0.000u      0.000s      0.012w    624 calls
Grad: JK                            :      7.700u      2.167s      9.925w    624 calls
JKGrad: Amn                         :      0.950u      0.283s      0.768w    624 calls
JKGrad: Awmn                        :      0.000u      0.000s      0.001w    624 calls
JKGrad: AB                          :      3.800u      0.433s      2.462w    624 calls
JKGrad: UV                          :      0.150u      0.033s      0.114w    624 calls
JKGrad: ABx                         :      1.067u      0.067s      0.753w    624 calls
JKGrad: Amnx                        :      1.617u      0.117s      1.035w    624 calls
Grad: XC                            :      0.000u      0.000s      0.000w    624 calls

--------------------------------------------------------------------------------------
DFH: sparsity prep                  :      0.600u      0.083s      0.400w    624 calls
| Libint2ERI::Libint2ERI            :      0.133u      0.000s      0.087w    624 calls
DFH: initialize()                   :      5.050u      1.083s     13.933w    624 calls
| Libint2ERI::Libint2ERI            :      0.183u      0.150s      0.181w   1269 calls
| DFH: AO Construction              :      0.317u      0.000s      0.202w    624 calls
| DFH: AO-Met. Contraction          :      0.550u      0.033s      0.305w    624 calls
HF: Form core H                     :      0.117u      0.300s      0.834w    624 calls
HF: Form S/X                        :      0.050u      0.000s      0.028w    624 calls
HF: Guess                           :      9.667u      2.250s     22.887w    624 calls
| SAD Guess                         :      9.100u      2.067s     22.189w    624 calls
HF: Form G                          :      0.633u      0.083s      0.460w   5168 calls
| JK: D                             :      0.000u      0.000s      0.006w   5168 calls
| JK: USO2AO                        :      0.000u      0.000s      0.005w   5168 calls
| JK: JK                            :      0.567u      0.050s      0.415w   5168 calls
| | DFH: compute_JK()               :      0.567u      0.033s      0.406w   5168 calls
| | | DFH: Grabbing AOs             :      0.017u      0.000s      0.003w   5168 calls
| | | DFH: compute_J                :      0.033u      0.017s      0.045w   5168 calls
| | | DFH: compute_K                :      0.500u      0.000s      0.332w   5168 calls
| JK: AO2USO                        :      0.000u      0.000s      0.003w   5168 calls
HF: Form F                          :      0.033u      0.017s      0.012w   5168 calls
HF: Form D                          :      0.000u      0.000s      0.008w   5168 calls
HF: DIIS                            :     10.500u      0.850s      7.399w   4544 calls
HF: Form C                          :      1.350u      0.000s      0.678w   4544 calls
Grad: V T Perturb                   :      0.133u      0.000s      0.047w    624 calls
Grad: S                             :      0.000u      0.000s      0.012w    624 calls
Grad: JK                            :      7.700u      2.167s      9.925w    624 calls
| JKGrad: Amn                       :      0.950u      0.283s      0.768w    624 calls
| | Libint2ERI::Libint2ERI          :      0.167u      0.067s      0.124w    624 calls
| JKGrad: Awmn                      :      0.000u      0.000s      0.001w    624 calls
| JKGrad: AB                        :      3.800u      0.433s      2.462w    624 calls
| | Libint2ERI::Libint2ERI          :      0.033u      0.133s      0.061w    645 calls
| JKGrad: UV                        :      0.150u      0.033s      0.114w    624 calls
| JKGrad: ABx                       :      1.067u      0.067s      0.753w    624 calls
| | Libint2ERI::Libint2ERI          :      0.050u      0.050s      0.049w    624 calls
| JKGrad: Amnx                      :      1.617u      0.117s      1.035w    624 calls
| | Libint2ERI::Libint2ERI          :      0.200u      0.050s      0.148w    624 calls
Grad: XC                            :      0.000u      0.000s      0.000w    624 calls

**************************************************************************************

Host: cst14372

Timers On : Tue Dec 30 17:56:57 2025
Timers Off: Tue Dec 30 17:57:19 2025

Wall Time:       21.64 seconds

                                                       Time (seconds)
Module                                       User      System        Wall        Calls

--------------------------------------------------------------------------------------

**************************************************************************************

Host: cst14372

Timers On : Tue Dec 30 17:59:11 2025
Timers Off: Tue Dec 30 17:59:17 2025

Wall Time:        5.96 seconds

                                                       Time (seconds)
Module                                       User      System        Wall        Calls

--------------------------------------------------------------------------------------

**************************************************************************************

Host: cst14372

Timers On : Tue Dec 30 18:00:07 2025
Timers Off: Tue Dec 30 18:07:11 2025

Wall Time:      424.00 seconds

                                                       Time (seconds)
Module                                       User      System        Wall        Calls
DFH: sparsity prep                  :      3.067u      1.333s      2.581w   2026 calls
Libint2ERI::Libint2ERI              :      5.233u      2.867s      4.641w  18234 calls
DFH: initialize()                   :     28.017u      4.967s     42.928w   2026 calls
DFH: AO Construction                :      2.100u      0.083s      0.774w   2026 calls
DFH: AO-Met. Contraction            :      9.783u      0.017s      2.836w   2026 calls
HF: Form core H                     :      0.533u      1.783s      3.972w   2026 calls
HF: Form S/X                        :      0.317u      0.050s      0.199w   2026 calls
HF: Guess                           :     40.733u     15.283s     77.843w   2026 calls
SAD Guess                           :     39.150u     14.600s     75.640w   2026 calls
HF: Form G                          :     19.300u      1.167s      9.763w  20245 calls
JK: D                               :      0.100u      0.000s      0.046w  20245 calls
JK: USO2AO                          :      0.017u      0.000s      0.023w  20245 calls
JK: JK                              :     18.967u      1.067s      9.539w  20245 calls
DFH: compute_JK()                   :     18.933u      1.050s      9.500w  20245 calls
DFH: Grabbing AOs                   :      0.033u      0.067s      0.012w  20245 calls
DFH: compute_J                      :      1.600u      0.317s      0.746w  20245 calls
DFH: compute_K                      :     17.050u      0.150s      8.366w  20245 calls
JK: AO2USO                          :      0.017u      0.017s      0.012w  20245 calls
HF: Form F                          :      0.150u      0.250s      0.189w  20245 calls
HF: Form D                          :      0.100u      0.017s      0.050w  20245 calls
HF: DIIS                            :     42.000u      4.317s     29.201w  18219 calls
HF: Form C                          :      5.933u      0.000s      3.275w  18219 calls
Grad: V T Perturb                   :      0.750u      1.083s      1.048w   2026 calls
Grad: S                             :      0.067u      0.483s      0.440w   2026 calls
Grad: JK                            :     34.500u     10.583s     36.499w   2026 calls
JKGrad: Amn                         :      6.833u      2.467s      4.625w   2026 calls
JKGrad: Awmn                        :      0.000u      0.000s      0.002w   2026 calls
JKGrad: AB                          :     14.767u      1.150s      9.444w   2026 calls
JKGrad: UV                          :      0.517u      0.150s      0.476w   2026 calls
JKGrad: ABx                         :      2.600u      0.167s      1.409w   2026 calls
JKGrad: Amnx                        :      9.433u      2.167s      5.018w   2026 calls
Grad: XC                            :      0.000u      0.017s      0.001w   2026 calls

--------------------------------------------------------------------------------------
DFH: sparsity prep                  :      3.067u      1.333s      2.581w   2026 calls
| Libint2ERI::Libint2ERI            :      1.550u      1.300s      1.504w   2026 calls
DFH: initialize()                   :     28.017u      4.967s     42.928w   2026 calls
| Libint2ERI::Libint2ERI            :      1.067u      0.483s      1.012w   6078 calls
| DFH: AO Construction              :      2.100u      0.083s      0.774w   2026 calls
| DFH: AO-Met. Contraction          :      9.783u      0.017s      2.836w   2026 calls
HF: Form core H                     :      0.533u      1.783s      3.972w   2026 calls
HF: Form S/X                        :      0.317u      0.050s      0.199w   2026 calls
HF: Guess                           :     40.733u     15.283s     77.843w   2026 calls
| SAD Guess                         :     39.150u     14.600s     75.640w   2026 calls
HF: Form G                          :     19.300u      1.167s      9.763w  20245 calls
| JK: D                             :      0.100u      0.000s      0.046w  20245 calls
| JK: USO2AO                        :      0.017u      0.000s      0.023w  20245 calls
| JK: JK                            :     18.967u      1.067s      9.539w  20245 calls
| | DFH: compute_JK()               :     18.933u      1.050s      9.500w  20245 calls
| | | DFH: Grabbing AOs             :      0.033u      0.067s      0.012w  20245 calls
| | | DFH: compute_J                :      1.600u      0.317s      0.746w  20245 calls
| | | DFH: compute_K                :     17.050u      0.150s      8.366w  20245 calls
| JK: AO2USO                        :      0.017u      0.017s      0.012w  20245 calls
HF: Form F                          :      0.150u      0.250s      0.189w  20245 calls
HF: Form D                          :      0.100u      0.017s      0.050w  20245 calls
HF: DIIS                            :     42.000u      4.317s     29.201w  18219 calls
HF: Form C                          :      5.933u      0.000s      3.275w  18219 calls
Grad: V T Perturb                   :      0.750u      1.083s      1.048w   2026 calls
Grad: S                             :      0.067u      0.483s      0.440w   2026 calls
Grad: JK                            :     34.500u     10.583s     36.499w   2026 calls
| JKGrad: Amn                       :      6.833u      2.467s      4.625w   2026 calls
| | Libint2ERI::Libint2ERI          :      1.283u      0.550s      1.067w   2026 calls
| JKGrad: Awmn                      :      0.000u      0.000s      0.002w   2026 calls
| JKGrad: AB                        :     14.767u      1.150s      9.444w   2026 calls
| | Libint2ERI::Libint2ERI          :      0.067u      0.017s      0.043w   4052 calls
| JKGrad: UV                        :      0.517u      0.150s      0.476w   2026 calls
| JKGrad: ABx                       :      2.600u      0.167s      1.409w   2026 calls
| | Libint2ERI::Libint2ERI          :      0.050u      0.000s      0.023w   2026 calls
| JKGrad: Amnx                      :      9.433u      2.167s      5.018w   2026 calls
| | Libint2ERI::Libint2ERI          :      1.217u      0.517s      0.992w   2026 calls
Grad: XC                            :      0.000u      0.017s      0.001w   2026 calls

**************************************************************************************

Host: cst14372

Timers On : Tue Dec 30 18:12:53 2025
Timers Off: Tue Dec 30 18:12:58 2025

Wall Time:        4.88 seconds

                                                       Time (seconds)
Module                                       User      System        Wall        Calls

--------------------------------------------------------------------------------------

**************************************************************************************

Host: cst14372

Timers On : Tue Dec 30 18:13:59 2025
Timers Off: Tue Dec 30 18:14:04 2025

Wall Time:        4.72 seconds

                                                       Time (seconds)
Module                                       User      System        Wall        Calls

--------------------------------------------------------------------------------------

**************************************************************************************

Host: cst14372

Timers On : Tue Dec 30 18:20:17 2025
Timers Off: Tue Dec 30 18:20:22 2025

Wall Time:        4.65 seconds

                                                       Time (seconds)
Module                                       User      System        Wall        Calls

--------------------------------------------------------------------------------------

**************************************************************************************

Host: cst14372

Timers On : Tue Dec 30 18:30:29 2025
Timers Off: Tue Dec 30 19:24:39 2025

Wall Time:     3249.70 seconds

                                                       Time (seconds)
Module                                       User      System        Wall        Calls
V: Grid                             :    104.267u      7.450s     53.044w   4227 calls
build grid                          :     65.633u      2.850s     27.127w   4227 calls
post-process grid                   :     38.417u      4.583s     25.745w   4227 calls
DFH: sparsity prep                  :      6.583u      2.583s      4.991w   4227 calls
Libint2ERI::Libint2ERI              :      9.017u      5.083s      8.668w  38043 calls
DFH: initialize()                   :     55.733u      9.217s    106.941w   4227 calls
DFH: AO Construction                :      4.900u      0.167s      1.583w   4227 calls
DFH: AO-Met. Contraction            :     18.917u      0.183s      5.786w   4227 calls
HF: Form core H                     :      1.567u      5.133s      9.584w   4227 calls
HF: Form S/X                        :      0.717u      0.133s      0.429w   4227 calls
HF: Guess                           :     82.550u     32.300s    202.353w   4227 calls
SAD Guess                           :     79.283u     30.867s    197.119w   4227 calls
HF: Form G                          :   3368.667u      9.850s   1999.146w  37683 calls
RV: Form V                          :   3334.000u      6.417s   1979.991w  37683 calls
Properties                          :    823.087p                         22881979 calls
Functional                          :   1756.429p                         22881979 calls
V_xc                                :   1618.948p                         20574133 calls
JK: D                               :      0.083u      0.050s      0.141w  37683 calls
JK: USO2AO                          :      0.117u      0.000s      0.080w  37683 calls
JK: JK                              :     32.900u      2.550s     17.599w  37683 calls
DFH: compute_JK()                   :     32.783u      2.533s     17.489w  37683 calls
DFH: Grabbing AOs                   :      0.017u      0.067s      0.022w  37683 calls
DFH: compute_J                      :      2.733u      0.917s      1.863w  37683 calls
DFH: compute_K                      :     29.600u      0.250s     14.540w  37683 calls
JK: AO2USO                          :      0.000u      0.033s      0.024w  37683 calls
HF: Form F                          :      0.367u      0.417s      0.392w  37683 calls
HF: Form D                          :      0.117u      0.017s      0.089w  37683 calls
HF: DIIS                            :     81.050u     10.117s     59.315w  33456 calls
HF: Form C                          :     10.117u      0.050s      5.895w  33456 calls
Grad: V T Perturb                   :      1.217u      1.550s      1.612w   4227 calls
Grad: S                             :      0.383u      0.700s      0.613w   4227 calls
Grad: JK                            :     67.583u     20.400s     77.165w   4227 calls
JKGrad: Amn                         :     12.667u      5.500s      9.145w   4227 calls
JKGrad: Awmn                        :      0.000u      0.000s      0.004w   4227 calls
JKGrad: AB                          :     28.717u      2.267s     18.357w   4227 calls
JKGrad: UV                          :      1.117u      0.317s      0.891w   4227 calls
JKGrad: ABx                         :      5.817u      0.133s      2.711w   4227 calls
JKGrad: Amnx                        :     18.550u      4.083s     10.000w   4227 calls
Grad: XC                            :    739.933u      4.300s    225.171w   4227 calls
V_xc gradient                       :    192.905p                         2307846 calls

--------------------------------------------------------------------------------------
V: Grid                             :    104.267u      7.450s     53.044w   4227 calls
| build grid                        :     65.633u      2.850s     27.127w   4227 calls
| post-process grid                 :     38.417u      4.583s     25.745w   4227 calls
DFH: sparsity prep                  :      6.583u      2.583s      4.991w   4227 calls
| Libint2ERI::Libint2ERI            :      2.500u      2.533s      2.906w   4227 calls
DFH: initialize()                   :     55.733u      9.217s    106.941w   4227 calls
| Libint2ERI::Libint2ERI            :      1.967u      0.750s      1.919w  12681 calls
| DFH: AO Construction              :      4.900u      0.167s      1.583w   4227 calls
| DFH: AO-Met. Contraction          :     18.917u      0.183s      5.786w   4227 calls
HF: Form core H                     :      1.567u      5.133s      9.584w   4227 calls
HF: Form S/X                        :      0.717u      0.133s      0.429w   4227 calls
HF: Guess                           :     82.550u     32.300s    202.353w   4227 calls
| SAD Guess                         :     79.283u     30.867s    197.119w   4227 calls
HF: Form G                          :   3368.667u      9.850s   1999.146w  37683 calls
| RV: Form V                        :   3334.000u      6.417s   1979.991w  37683 calls
| | Properties                      :    649.012p                         20574133 calls
| | Functional                      :   1679.712p                         20574133 calls
| | V_xc                            :   1618.948p                         20574133 calls
| JK: D                             :      0.083u      0.050s      0.141w  37683 calls
| JK: USO2AO                        :      0.117u      0.000s      0.080w  37683 calls
| JK: JK                            :     32.900u      2.550s     17.599w  37683 calls
| | DFH: compute_JK()               :     32.783u      2.533s     17.489w  37683 calls
| | | DFH: Grabbing AOs             :      0.017u      0.067s      0.022w  37683 calls
| | | DFH: compute_J                :      2.733u      0.917s      1.863w  37683 calls
| | | DFH: compute_K                :     29.600u      0.250s     14.540w  37683 calls
| JK: AO2USO                        :      0.000u      0.033s      0.024w  37683 calls
HF: Form F                          :      0.367u      0.417s      0.392w  37683 calls
HF: Form D                          :      0.117u      0.017s      0.089w  37683 calls
HF: DIIS                            :     81.050u     10.117s     59.315w  33456 calls
HF: Form C                          :     10.117u      0.050s      5.895w  33456 calls
Grad: V T Perturb                   :      1.217u      1.550s      1.612w   4227 calls
Grad: S                             :      0.383u      0.700s      0.613w   4227 calls
Grad: JK                            :     67.583u     20.400s     77.165w   4227 calls
| JKGrad: Amn                       :     12.667u      5.500s      9.145w   4227 calls
| | Libint2ERI::Libint2ERI          :      2.317u      1.033s      1.915w   4227 calls
| JKGrad: Awmn                      :      0.000u      0.000s      0.004w   4227 calls
| JKGrad: AB                        :     28.717u      2.267s     18.357w   4227 calls
| | Libint2ERI::Libint2ERI          :      0.117u      0.017s      0.088w   8454 calls
| JKGrad: UV                        :      1.117u      0.317s      0.891w   4227 calls
| JKGrad: ABx                       :      5.817u      0.133s      2.711w   4227 calls
| | Libint2ERI::Libint2ERI          :      0.117u      0.000s      0.046w   4227 calls
| JKGrad: Amnx                      :     18.550u      4.083s     10.000w   4227 calls
| | Libint2ERI::Libint2ERI          :      2.000u      0.750s      1.794w   4227 calls
Grad: XC                            :    739.933u      4.300s    225.171w   4227 calls
| Properties                        :    174.076p                         2307846 calls
| Functional                        :     76.718p                         2307846 calls
| V_xc gradient                     :    192.905p                         2307846 calls

**************************************************************************************

Host: cst14372

Timers On : Tue Dec 30 20:33:28 2025
Timers Off: Tue Dec 30 20:33:49 2025

Wall Time:       20.35 seconds

                                                       Time (seconds)
Module                                       User      System        Wall        Calls

--------------------------------------------------------------------------------------

**************************************************************************************

Host: cst14372

Timers On : Tue Dec 30 20:37:43 2025
Timers Off: Tue Dec 30 20:37:47 2025

Wall Time:        3.27 seconds

                                                       Time (seconds)
Module                                       User      System        Wall        Calls

--------------------------------------------------------------------------------------

**************************************************************************************

Host: cst14372

Timers On : Tue Dec 30 22:11:47 2025
Timers Off: Tue Dec 30 22:12:01 2025

Wall Time:       14.16 seconds

                                                       Time (seconds)
Module                                       User      System        Wall        Calls

--------------------------------------------------------------------------------------

**************************************************************************************

Host: cst14372

Timers On : Tue Dec 30 22:12:36 2025
Timers Off: Tue Dec 30 22:12:39 2025

Wall Time:        3.09 seconds

                                                       Time (seconds)
Module                                       User      System        Wall        Calls

--------------------------------------------------------------------------------------

**************************************************************************************

Host: cst14372

Timers On : Wed Dec 31 00:55:55 2025
Timers Off: Wed Dec 31 00:56:07 2025

Wall Time:       12.34 seconds

                                                       Time (seconds)
Module                                       User      System        Wall        Calls
DFH: sparsity prep                  :      0.017u      0.033s      0.026w     21 calls
Libint2ERI::Libint2ERI              :      0.050u      0.067s      0.049w    189 calls
DFH: initialize()                   :      0.367u      0.567s      0.507w     21 calls
DFH: AO Construction                :      0.033u      0.017s      0.009w     21 calls
DFH: AO-Met. Contraction            :      0.183u      0.100s      0.033w     21 calls
HF: Form core H                     :      0.033u      0.067s      0.036w     21 calls
HF: Form S/X                        :      0.000u      0.017s      0.002w     21 calls
HF: Guess                           :      0.483u      1.167s      0.966w     21 calls
SAD Guess                           :      0.450u      1.133s      0.944w     21 calls
HF: Form G                          :      0.233u      0.000s      0.098w    210 calls
JK: D                               :      0.000u      0.000s      0.001w    210 calls
JK: USO2AO                          :      0.000u      0.000s      0.000w    210 calls
JK: JK                              :      0.233u      0.000s      0.096w    210 calls
DFH: compute_JK()                   :      0.233u      0.000s      0.095w    210 calls
DFH: Grabbing AOs                   :      0.000u      0.000s      0.000w    210 calls
DFH: compute_J                      :      0.017u      0.000s      0.008w    210 calls
DFH: compute_K                      :      0.217u      0.000s      0.084w    210 calls
JK: AO2USO                          :      0.000u      0.000s      0.000w    210 calls
HF: Form F                          :      0.000u      0.000s      0.002w    210 calls
HF: Form D                          :      0.000u      0.000s      0.001w    210 calls
HF: DIIS                            :      0.350u      0.017s      0.291w    189 calls
HF: Form C                          :      0.050u      0.000s      0.033w    189 calls
Grad: V T Perturb                   :      0.000u      0.000s      0.007w     21 calls
Grad: S                             :      0.000u      0.000s      0.002w     21 calls
Grad: JK                            :      0.367u      0.150s      0.398w     21 calls
JKGrad: Amn                         :      0.067u      0.033s      0.046w     21 calls
JKGrad: Awmn                        :      0.000u      0.000s      0.000w     21 calls
JKGrad: AB                          :      0.183u      0.050s      0.092w     21 calls
JKGrad: UV                          :      0.017u      0.000s      0.005w     21 calls
JKGrad: ABx                         :      0.050u      0.000s      0.014w     21 calls
JKGrad: Amnx                        :      0.050u      0.017s      0.053w     21 calls
Grad: XC                            :      0.000u      0.000s      0.000w     21 calls

--------------------------------------------------------------------------------------
DFH: sparsity prep                  :      0.017u      0.033s      0.026w     21 calls
| Libint2ERI::Libint2ERI            :      0.017u      0.017s      0.015w     21 calls
DFH: initialize()                   :      0.367u      0.567s      0.507w     21 calls
| Libint2ERI::Libint2ERI            :      0.017u      0.033s      0.011w     63 calls
| DFH: AO Construction              :      0.033u      0.017s      0.009w     21 calls
| DFH: AO-Met. Contraction          :      0.183u      0.100s      0.033w     21 calls
HF: Form core H                     :      0.033u      0.067s      0.036w     21 calls
HF: Form S/X                        :      0.000u      0.017s      0.002w     21 calls
HF: Guess                           :      0.483u      1.167s      0.966w     21 calls
| SAD Guess                         :      0.450u      1.133s      0.944w     21 calls
HF: Form G                          :      0.233u      0.000s      0.098w    210 calls
| JK: D                             :      0.000u      0.000s      0.001w    210 calls
| JK: USO2AO                        :      0.000u      0.000s      0.000w    210 calls
| JK: JK                            :      0.233u      0.000s      0.096w    210 calls
| | DFH: compute_JK()               :      0.233u      0.000s      0.095w    210 calls
| | | DFH: Grabbing AOs             :      0.000u      0.000s      0.000w    210 calls
| | | DFH: compute_J                :      0.017u      0.000s      0.008w    210 calls
| | | DFH: compute_K                :      0.217u      0.000s      0.084w    210 calls
| JK: AO2USO                        :      0.000u      0.000s      0.000w    210 calls
HF: Form F                          :      0.000u      0.000s      0.002w    210 calls
HF: Form D                          :      0.000u      0.000s      0.001w    210 calls
HF: DIIS                            :      0.350u      0.017s      0.291w    189 calls
HF: Form C                          :      0.050u      0.000s      0.033w    189 calls
Grad: V T Perturb                   :      0.000u      0.000s      0.007w     21 calls
Grad: S                             :      0.000u      0.000s      0.002w     21 calls
Grad: JK                            :      0.367u      0.150s      0.398w     21 calls
| JKGrad: Amn                       :      0.067u      0.033s      0.046w     21 calls
| | Libint2ERI::Libint2ERI          :      0.017u      0.017s      0.011w     21 calls
| JKGrad: Awmn                      :      0.000u      0.000s      0.000w     21 calls
| JKGrad: AB                        :      0.183u      0.050s      0.092w     21 calls
| | Libint2ERI::Libint2ERI          :      0.000u      0.000s      0.000w     42 calls
| JKGrad: UV                        :      0.017u      0.000s      0.005w     21 calls
| JKGrad: ABx                       :      0.050u      0.000s      0.014w     21 calls
| | Libint2ERI::Libint2ERI          :      0.000u      0.000s      0.000w     21 calls
| JKGrad: Amnx                      :      0.050u      0.017s      0.053w     21 calls
| | Libint2ERI::Libint2ERI          :      0.000u      0.000s      0.011w     21 calls
Grad: XC                            :      0.000u      0.000s      0.000w     21 calls

**************************************************************************************

Host: cst14372

Timers On : Wed Dec 31 01:08:29 2025
Timers Off: Wed Dec 31 01:11:26 2025

Wall Time:      176.96 seconds

                                                       Time (seconds)
Module                                       User      System        Wall        Calls
DFH: sparsity prep                  :      0.167u      0.050s      0.147w    121 calls
Libint2ERI::Libint2ERI              :      0.317u      0.100s      0.257w   1089 calls
DFH: initialize()                   :      1.733u      0.283s      2.763w    121 calls
DFH: AO Construction                :      0.183u      0.000s      0.044w    121 calls
DFH: AO-Met. Contraction            :      0.583u      0.017s      0.164w    121 calls
HF: Form core H                     :      0.033u      0.100s      0.202w    121 calls
HF: Form S/X                        :      0.000u      0.017s      0.012w    121 calls
HF: Guess                           :      2.200u      0.783s      5.012w    121 calls
SAD Guess                           :      2.133u      0.750s      4.879w    121 calls
HF: Form G                          :      1.283u      0.117s      0.563w   1210 calls
JK: D                               :      0.017u      0.017s      0.003w   1210 calls
JK: USO2AO                          :      0.000u      0.000s      0.001w   1210 calls
JK: JK                              :      1.250u      0.100s      0.550w   1210 calls
DFH: compute_JK()                   :      1.250u      0.083s      0.547w   1210 calls
DFH: Grabbing AOs                   :      0.000u      0.000s      0.001w   1210 calls
DFH: compute_J                      :      0.083u      0.067s      0.043w   1210 calls
DFH: compute_K                      :      1.150u      0.000s      0.488w   1210 calls
JK: AO2USO                          :      0.000u      0.000s      0.001w   1210 calls
HF: Form F                          :      0.017u      0.017s      0.011w   1210 calls
HF: Form D                          :      0.000u      0.000s      0.003w   1210 calls
HF: DIIS                            :      2.467u      0.200s      1.688w   1089 calls
HF: Form C                          :      0.233u      0.000s      0.187w   1089 calls
Grad: V T Perturb                   :      0.050u      0.000s      0.031w    121 calls
Grad: S                             :      0.000u      0.000s      0.011w    121 calls
Grad: JK                            :      1.950u      0.583s      2.010w    121 calls
JKGrad: Amn                         :      0.333u      0.133s      0.264w    121 calls
JKGrad: Awmn                        :      0.000u      0.000s      0.000w    121 calls
JKGrad: AB                          :      1.050u      0.083s      0.525w    121 calls
JKGrad: UV                          :      0.017u      0.000s      0.025w    121 calls
JKGrad: ABx                         :      0.133u      0.000s      0.076w    121 calls
JKGrad: Amnx                        :      0.383u      0.067s      0.286w    121 calls
Grad: XC                            :      0.000u      0.000s      0.000w    121 calls

--------------------------------------------------------------------------------------
DFH: sparsity prep                  :      0.167u      0.050s      0.147w    121 calls
| Libint2ERI::Libint2ERI            :      0.117u      0.050s      0.086w    121 calls
DFH: initialize()                   :      1.733u      0.283s      2.763w    121 calls
| Libint2ERI::Libint2ERI            :      0.083u      0.000s      0.056w    363 calls
| DFH: AO Construction              :      0.183u      0.000s      0.044w    121 calls
| DFH: AO-Met. Contraction          :      0.583u      0.017s      0.164w    121 calls
HF: Form core H                     :      0.033u      0.100s      0.202w    121 calls
HF: Form S/X                        :      0.000u      0.017s      0.012w    121 calls
HF: Guess                           :      2.200u      0.783s      5.012w    121 calls
| SAD Guess                         :      2.133u      0.750s      4.879w    121 calls
HF: Form G                          :      1.283u      0.117s      0.563w   1210 calls
| JK: D                             :      0.017u      0.017s      0.003w   1210 calls
| JK: USO2AO                        :      0.000u      0.000s      0.001w   1210 calls
| JK: JK                            :      1.250u      0.100s      0.550w   1210 calls
| | DFH: compute_JK()               :      1.250u      0.083s      0.547w   1210 calls
| | | DFH: Grabbing AOs             :      0.000u      0.000s      0.001w   1210 calls
| | | DFH: compute_J                :      0.083u      0.067s      0.043w   1210 calls
| | | DFH: compute_K                :      1.150u      0.000s      0.488w   1210 calls
| JK: AO2USO                        :      0.000u      0.000s      0.001w   1210 calls
HF: Form F                          :      0.017u      0.017s      0.011w   1210 calls
HF: Form D                          :      0.000u      0.000s      0.003w   1210 calls
HF: DIIS                            :      2.467u      0.200s      1.688w   1089 calls
HF: Form C                          :      0.233u      0.000s      0.187w   1089 calls
Grad: V T Perturb                   :      0.050u      0.000s      0.031w    121 calls
Grad: S                             :      0.000u      0.000s      0.011w    121 calls
Grad: JK                            :      1.950u      0.583s      2.010w    121 calls
| JKGrad: Amn                       :      0.333u      0.133s      0.264w    121 calls
| | Libint2ERI::Libint2ERI          :      0.067u      0.033s      0.059w    121 calls
| JKGrad: Awmn                      :      0.000u      0.000s      0.000w    121 calls
| JKGrad: AB                        :      1.050u      0.083s      0.525w    121 calls
| | Libint2ERI::Libint2ERI          :      0.017u      0.000s      0.002w    242 calls
| JKGrad: UV                        :      0.017u      0.000s      0.025w    121 calls
| JKGrad: ABx                       :      0.133u      0.000s      0.076w    121 calls
| | Libint2ERI::Libint2ERI          :      0.000u      0.000s      0.001w    121 calls
| JKGrad: Amnx                      :      0.383u      0.067s      0.286w    121 calls
| | Libint2ERI::Libint2ERI          :      0.033u      0.017s      0.053w    121 calls
Grad: XC                            :      0.000u      0.000s      0.000w    121 calls

**************************************************************************************

Host: cst14372

Timers On : Wed Dec 31 01:19:31 2025
Timers Off: Wed Dec 31 01:21:23 2025

Wall Time:      111.45 seconds

                                                       Time (seconds)
Module                                       User      System        Wall        Calls
V: Grid                             :      3.017u      0.133s      1.539w    121 calls
build grid                          :      2.000u      0.050s      0.784w    121 calls
post-process grid                   :      1.017u      0.083s      0.750w    121 calls
DFH: sparsity prep                  :      0.167u      0.117s      0.141w    121 calls
Libint2ERI::Libint2ERI              :      0.317u      0.200s      0.253w   1089 calls
DFH: initialize()                   :      1.583u      0.233s      2.775w    121 calls
DFH: AO Construction                :      0.083u      0.017s      0.044w    121 calls
DFH: AO-Met. Contraction            :      0.617u      0.000s      0.162w    121 calls
HF: Form core H                     :      0.083u      0.133s      0.204w    121 calls
HF: Form S/X                        :      0.017u      0.000s      0.013w    121 calls
HF: Guess                           :      2.383u      0.950s      5.520w    121 calls
SAD Guess                           :      2.250u      0.900s      5.385w    121 calls
HF: Form G                          :     95.317u      0.233s     29.002w   1069 calls
RV: Form V                          :     94.367u      0.150s     28.461w   1069 calls
Properties                          :     23.428p                         649552 calls
Functional                          :     22.147p                         649552 calls
V_xc                                :     18.238p                         583506 calls
JK: D                               :      0.000u      0.000s      0.004w   1069 calls
JK: USO2AO                          :      0.000u      0.000s      0.002w   1069 calls
JK: JK                              :      0.850u      0.067s      0.494w   1069 calls
DFH: compute_JK()                   :      0.850u      0.050s      0.491w   1069 calls
DFH: Grabbing AOs                   :      0.000u      0.000s      0.001w   1069 calls
DFH: compute_J                      :      0.050u      0.000s      0.049w   1069 calls
DFH: compute_K                      :      0.783u      0.000s      0.416w   1069 calls
JK: AO2USO                          :      0.000u      0.000s      0.001w   1069 calls
HF: Form F                          :      0.033u      0.033s      0.013w   1069 calls
HF: Form D                          :      0.000u      0.000s      0.003w   1069 calls
HF: DIIS                            :      2.400u      0.333s      1.636w    948 calls
HF: Form C                          :      0.300u      0.000s      0.168w    948 calls
Grad: V T Perturb                   :      0.067u      0.017s      0.034w    121 calls
Grad: S                             :      0.017u      0.000s      0.013w    121 calls
Grad: JK                            :      1.867u      0.567s      2.042w    121 calls
JKGrad: Amn                         :      0.383u      0.117s      0.268w    121 calls
JKGrad: Awmn                        :      0.000u      0.000s      0.000w    121 calls
JKGrad: AB                          :      0.650u      0.100s      0.520w    121 calls
JKGrad: UV                          :      0.100u      0.017s      0.025w    121 calls
JKGrad: ABx                         :      0.117u      0.000s      0.077w    121 calls
JKGrad: Amnx                        :      0.567u      0.167s      0.289w    121 calls
Grad: XC                            :     21.200u      0.200s      6.456w    121 calls
V_xc gradient                       :      5.534p                          66046 calls

--------------------------------------------------------------------------------------
V: Grid                             :      3.017u      0.133s      1.539w    121 calls
| build grid                        :      2.000u      0.050s      0.784w    121 calls
| post-process grid                 :      1.017u      0.083s      0.750w    121 calls
DFH: sparsity prep                  :      0.167u      0.117s      0.141w    121 calls
| Libint2ERI::Libint2ERI            :      0.067u      0.117s      0.082w    121 calls
DFH: initialize()                   :      1.583u      0.233s      2.775w    121 calls
| Libint2ERI::Libint2ERI            :      0.067u      0.000s      0.055w    363 calls
| DFH: AO Construction              :      0.083u      0.017s      0.044w    121 calls
| DFH: AO-Met. Contraction          :      0.617u      0.000s      0.162w    121 calls
HF: Form core H                     :      0.083u      0.133s      0.204w    121 calls
HF: Form S/X                        :      0.017u      0.000s      0.013w    121 calls
HF: Guess                           :      2.383u      0.950s      5.520w    121 calls
| SAD Guess                         :      2.250u      0.900s      5.385w    121 calls
HF: Form G                          :     95.317u      0.233s     29.002w   1069 calls
| RV: Form V                        :     94.367u      0.150s     28.461w   1069 calls
| | Properties                      :     18.412p                         583506 calls
| | Functional                      :     19.946p                         583506 calls
| | V_xc                            :     18.238p                         583506 calls
| JK: D                             :      0.000u      0.000s      0.004w   1069 calls
| JK: USO2AO                        :      0.000u      0.000s      0.002w   1069 calls
| JK: JK                            :      0.850u      0.067s      0.494w   1069 calls
| | DFH: compute_JK()               :      0.850u      0.050s      0.491w   1069 calls
| | | DFH: Grabbing AOs             :      0.000u      0.000s      0.001w   1069 calls
| | | DFH: compute_J                :      0.050u      0.000s      0.049w   1069 calls
| | | DFH: compute_K                :      0.783u      0.000s      0.416w   1069 calls
| JK: AO2USO                        :      0.000u      0.000s      0.001w   1069 calls
HF: Form F                          :      0.033u      0.033s      0.013w   1069 calls
HF: Form D                          :      0.000u      0.000s      0.003w   1069 calls
HF: DIIS                            :      2.400u      0.333s      1.636w    948 calls
HF: Form C                          :      0.300u      0.000s      0.168w    948 calls
Grad: V T Perturb                   :      0.067u      0.017s      0.034w    121 calls
Grad: S                             :      0.017u      0.000s      0.013w    121 calls
Grad: JK                            :      1.867u      0.567s      2.042w    121 calls
| JKGrad: Amn                       :      0.383u      0.117s      0.268w    121 calls
| | Libint2ERI::Libint2ERI          :      0.100u      0.050s      0.060w    121 calls
| JKGrad: Awmn                      :      0.000u      0.000s      0.000w    121 calls
| JKGrad: AB                        :      0.650u      0.100s      0.520w    121 calls
| | Libint2ERI::Libint2ERI          :      0.000u      0.000s      0.002w    242 calls
| JKGrad: UV                        :      0.100u      0.017s      0.025w    121 calls
| JKGrad: ABx                       :      0.117u      0.000s      0.077w    121 calls
| | Libint2ERI::Libint2ERI          :      0.000u      0.000s      0.001w    121 calls
| JKGrad: Amnx                      :      0.567u      0.167s      0.289w    121 calls
| | Libint2ERI::Libint2ERI          :      0.083u      0.033s      0.052w    121 calls
Grad: XC                            :     21.200u      0.200s      6.456w    121 calls
| Properties                        :      5.016p                          66046 calls
| Functional                        :      2.200p                          66046 calls
| V_xc gradient                     :      5.534p                          66046 calls

**************************************************************************************

Host: cst14372

Timers On : Wed Dec 31 01:31:17 2025
Timers Off: Wed Dec 31 01:41:17 2025

Wall Time:      599.95 seconds

                                                       Time (seconds)
Module                                       User      System        Wall        Calls
DFH: sparsity prep                  :      6.350u      0.083s      3.798w   1899 calls
Libint2ERI::Libint2ERI              :     10.667u      0.783s      6.996w  12660 calls
DFH: initialize()                   :     61.300u      3.900s     65.047w   1899 calls
DFH: AO Construction                :     10.567u      0.283s      6.510w   1899 calls
DFH: AO-Met. Contraction            :     29.600u      0.483s     18.122w   1899 calls
HF: Form core H                     :      0.600u      0.750s      2.439w   1266 calls
HF: Form S/X                        :      0.650u      0.000s      0.353w   1266 calls
HF: Guess                           :     35.367u      6.167s     61.105w   1266 calls
SAD Guess                           :     34.100u      5.700s     59.222w   1266 calls
HF: Form G                          :     71.567u      0.800s     43.897w  14798 calls
JK: D                               :      0.200u      0.050s      0.167w  21928 calls
JK: USO2AO                          :      0.083u      0.033s      0.039w  21928 calls
JK: JK                              :    149.267u      1.817s     91.568w  21928 calls
DFH: compute_JK()                   :    149.217u      1.817s     91.499w  21928 calls
DFH: Grabbing AOs                   :      0.000u      0.000s      0.011w  21928 calls
DFH: compute_J                      :      5.200u      0.067s      3.346w  21928 calls
DFH: compute_K                      :    143.650u      0.783s     87.432w  21928 calls
JK: AO2USO                          :      0.017u      0.000s      0.012w  21928 calls
HF: Form F                          :      0.133u      0.050s      0.062w  14798 calls
HF: Form D                          :      0.133u      0.000s      0.091w  14798 calls
HF: DIIS                            :     31.367u      3.250s     22.152w  13532 calls
HF: Form C                          :      7.733u      0.050s      4.280w  13532 calls
DFMP2 Singles                       :      0.050u      0.000s      0.026w   1266 calls
DFMP2 Aia                           :     10.267u      1.900s      9.666w   1266 calls
DFMP2 (A|mn)                        :      5.483u      0.033s      3.272w   1266 calls
DFMP2 (A|mn)C_mi                    :      2.000u      0.000s      1.267w   1266 calls
DFMP2 (A|mi)C_na                    :      0.367u      0.000s      0.234w   1266 calls
DFMP2 Aia Write                     :      0.000u      0.083s      0.080w   1266 calls
DFMP2 Bia                           :      3.483u      0.750s      7.754w    633 calls
DFMP2 Metric                        :      6.500u      0.067s      3.924w   1266 calls
DFMP2 Aia Read                      :      0.083u      0.200s      0.222w   1266 calls
DFMP2 (ia|A)(A|Q)                   :      0.783u      0.017s      0.566w   1266 calls
DFMP2 Bia Write                     :      0.000u      0.100s      0.092w   1266 calls
DFMP2 Energy                        :      2.000u      0.433s      6.724w    633 calls
DFMP2 Bia Read                      :      0.000u      0.033s      0.058w   3165 calls
DFMP2 iaB                           :      4.500u      1.633s     13.459w    633 calls
DFMP2 (ia|B)(B|Q)                   :      0.550u      0.000s      0.288w    633 calls
DFMP2 Cia Write                     :      0.000u      0.083s      0.043w    633 calls
DFMP2 aiB                           :      0.117u      0.750s      5.211w    633 calls
DFMP2 Tij                           :      4.267u      0.867s      6.492w    633 calls
DFMP2 Cia Read                      :      0.000u      0.050s      0.032w   1266 calls
DFMP2 I                             :      6.350u      0.050s      3.955w   1266 calls
DFMP2 T2                            :      0.033u      0.000s      0.076w   1266 calls
DFMP2 G                             :      0.817u      0.000s      0.448w    633 calls
DFMP2 Pab                           :      0.283u      0.000s      0.222w    633 calls
DFMP2 Gia Write                     :      0.000u      0.083s      0.042w    633 calls
DFMP2 Tab                           :      3.583u      0.600s      6.752w    633 calls
DFMP2 Bai Read                      :      0.017u      0.050s      0.020w    633 calls
DFMP2 Qai Read                      :      0.017u      0.000s      0.003w    633 calls
DFMP2 Pij                           :      0.183u      0.000s      0.119w    633 calls
DFMP2 gamma                         :      0.833u      0.350s      4.709w    633 calls
DFMP2 Gia Read                      :      0.017u      0.050s      0.029w   1266 calls
DFMP2 g                             :      0.733u      0.000s      0.313w    633 calls
DFMP2 Gia                           :      0.167u      1.033s      4.869w    633 calls
DFMP2 aiG Write                     :      0.033u      0.233s      0.125w    633 calls
DFMP2 AB^x                          :      1.167u      0.333s      4.198w    633 calls
DFMP2 Amn^x                         :     14.100u      1.000s     12.354w    633 calls
DFMP2 L                             :      7.700u      0.933s      9.365w    633 calls
DFMP2 P                             :      0.033u      0.300s      4.552w    633 calls
DFMP2 W                             :      0.100u      0.583s      4.244w    633 calls
DFMP2 Z                             :    103.283u      4.000s     74.655w    633 calls
DFMP2 grad                          :     35.917u      5.517s     37.140w    633 calls
Grad: V T Perturb                   :      0.367u      0.050s      0.305w    633 calls
Grad: S                             :      0.050u      0.000s      0.062w    633 calls
Grad: JK                            :     34.550u      4.900s     27.655w    633 calls
CorrGrad: Amn                       :      7.633u      1.917s      5.517w    633 calls
CorrGrad: AB                        :      6.517u      0.750s      4.595w    633 calls
CorrGrad: UV                        :      3.683u      0.217s      2.216w    633 calls
CorrGrad: ABx                       :      1.400u      0.000s      0.872w    633 calls
CorrGrad: Amnx                      :     15.217u      0.383s      9.679w    633 calls

--------------------------------------------------------------------------------------
DFH: sparsity prep                  :      4.550u      0.050s      2.658w   1266 calls
| Libint2ERI::Libint2ERI            :      2.400u      0.017s      1.538w   1266 calls
DFH: initialize()                   :     39.967u      2.367s     45.470w   1266 calls
| Libint2ERI::Libint2ERI            :      2.483u      0.167s      1.478w   2532 calls
| DFH: AO Construction              :      7.150u      0.200s      4.233w   1266 calls
| DFH: AO-Met. Contraction          :     19.167u      0.267s     11.780w   1266 calls
HF: Form core H                     :      0.600u      0.750s      2.439w   1266 calls
HF: Form S/X                        :      0.650u      0.000s      0.353w   1266 calls
HF: Guess                           :     35.367u      6.167s     61.105w   1266 calls
| SAD Guess                         :     34.100u      5.700s     59.222w   1266 calls
HF: Form G                          :     71.567u      0.800s     43.897w  14798 calls
| JK: D                             :      0.117u      0.000s      0.090w  14798 calls
| JK: USO2AO                        :      0.033u      0.017s      0.020w  14798 calls
| JK: JK                            :     71.150u      0.683s     43.632w  14798 calls
| | DFH: compute_JK()               :     71.117u      0.683s     43.590w  14798 calls
| | | DFH: Grabbing AOs             :      0.000u      0.000s      0.008w  14798 calls
| | | DFH: compute_J                :      3.050u      0.017s      1.904w  14798 calls
| | | DFH: compute_K                :     67.883u      0.417s     41.472w  14798 calls
| JK: AO2USO                        :      0.017u      0.000s      0.008w  14798 calls
HF: Form F                          :      0.133u      0.050s      0.062w  14798 calls
HF: Form D                          :      0.133u      0.000s      0.091w  14798 calls
HF: DIIS                            :     31.367u      3.250s     22.152w  13532 calls
HF: Form C                          :      7.733u      0.050s      4.280w  13532 calls
DFMP2 Singles                       :      0.050u      0.000s      0.026w   1266 calls
DFMP2 Aia                           :     10.267u      1.900s      9.666w   1266 calls
| Libint2ERI::Libint2ERI            :      1.350u      0.117s      0.894w   1266 calls
| DFMP2 (A|mn)                      :      5.483u      0.033s      3.272w   1266 calls
| DFMP2 (A|mn)C_mi                  :      2.000u      0.000s      1.267w   1266 calls
| DFMP2 (A|mi)C_na                  :      0.367u      0.000s      0.234w   1266 calls
| DFMP2 Aia Write                   :      0.000u      0.083s      0.080w   1266 calls
DFMP2 Bia                           :      3.483u      0.750s      7.754w    633 calls
| DFMP2 Metric                      :      3.050u      0.017s      1.951w    633 calls
| | Libint2ERI::Libint2ERI          :      0.017u      0.000s      0.009w    633 calls
| DFMP2 Aia Read                    :      0.050u      0.050s      0.110w    633 calls
| DFMP2 (ia|A)(A|Q)                 :      0.367u      0.000s      0.286w    633 calls
| DFMP2 Bia Write                   :      0.000u      0.067s      0.047w    633 calls
DFMP2 Energy                        :      2.000u      0.433s      6.724w    633 calls
| DFMP2 Bia Read                    :      0.000u      0.000s      0.022w   1266 calls
DFMP2 iaB                           :      4.500u      1.633s     13.459w    633 calls
| DFMP2 Metric                      :      3.450u      0.050s      1.973w    633 calls
| | Libint2ERI::Libint2ERI          :      0.000u      0.000s      0.009w    633 calls
| DFMP2 Aia Read                    :      0.033u      0.150s      0.112w    633 calls
| DFMP2 (ia|A)(A|Q)                 :      0.417u      0.017s      0.280w    633 calls
| DFMP2 Bia Write                   :      0.000u      0.033s      0.046w    633 calls
| DFMP2 Bia Read                    :      0.000u      0.000s      0.019w    633 calls
| DFMP2 (ia|B)(B|Q)                 :      0.550u      0.000s      0.288w    633 calls
[...]

**************************************************************************************

Host: cst14372

Timers On : Fri Jan 16 15:13:29 2026
Timers Off: Fri Jan 16 15:13:50 2026

Wall Time:       21.01 seconds

                                                       Time (seconds)
Module                                       User      System        Wall        Calls

--------------------------------------------------------------------------------------

**************************************************************************************

Host: cst14372

Timers On : Fri Jan 16 15:12:50 2026
Timers Off: Fri Jan 16 15:13:51 2026

Wall Time:       60.13 seconds

                                                       Time (seconds)
Module                                       User      System        Wall        Calls

--------------------------------------------------------------------------------------

**************************************************************************************

Host: cst14372

Timers On : Sat Jan 17 15:13:12 2026
Timers Off: Sat Jan 17 15:13:17 2026

Wall Time:        4.85 seconds

                                                       Time (seconds)
Module                                       User      System        Wall        Calls

--------------------------------------------------------------------------------------

**************************************************************************************

Host: cst14372

Timers On : Sat Jan 17 15:28:30 2026
Timers Off: Sat Jan 17 15:28:35 2026

Wall Time:        5.12 seconds

                                                       Time (seconds)
Module                                       User      System        Wall        Calls
V: Grid                             :      0.067u      0.000s      0.038w      2 calls
build grid                          :      0.033u      0.000s      0.023w      2 calls
post-process grid                   :      0.033u      0.000s      0.014w      2 calls
DFH: sparsity prep                  :      0.017u      0.000s      0.013w      2 calls
Libint2ERI::Libint2ERI              :      0.017u      0.000s      0.014w     10 calls
DFH: initialize()                   :      0.033u      0.000s      0.263w      2 calls
DFH: AO Construction                :      0.000u      0.000s      0.008w      2 calls
DFH: AO-Met. Contraction            :      0.017u      0.000s      0.007w      2 calls
HF: Form core H                     :      0.000u      0.000s      0.005w      2 calls
HF: Form S/X                        :      0.000u      0.000s      0.001w      2 calls
HF: Guess                           :      0.033u      0.000s      0.079w      2 calls
SAD Guess                           :      0.033u      0.000s      0.077w      2 calls
HF: Form G                          :      1.800u      0.050s      1.105w     17 calls
RV: Form V                          :      1.800u      0.050s      1.092w     17 calls
Properties                          :      0.600u      0.017s      0.395w   9864 calls
Functional                          :      0.683u      0.000s      0.402w   9864 calls
V_xc                                :      0.617u      0.000s      0.347w   9316 calls
JK: D                               :      0.000u      0.000s      0.000w     17 calls
JK: USO2AO                          :      0.000u      0.000s      0.000w     17 calls
JK: JK                              :      0.000u      0.000s      0.010w     17 calls
DFH: compute_JK()                   :      0.000u      0.000s      0.010w     17 calls
DFH: Grabbing AOs                   :      0.000u      0.000s      0.000w     17 calls
DFH: compute_J                      :      0.000u      0.000s      0.001w     17 calls
DFH: compute_K                      :      0.000u      0.000s      0.009w     17 calls
JK: AO2USO                          :      0.000u      0.000s      0.000w     17 calls
HF: Form F                          :      0.000u      0.000s      0.000w     17 calls
HF: Form D                          :      0.000u      0.000s      0.000w     17 calls
HF: DIIS                            :      0.050u      0.000s      0.036w     15 calls
HF: Form C                          :      0.000u      0.000s      0.003w     15 calls
Grad: V T Perturb                   :      0.000u      0.000s      0.002w      1 calls
Grad: S                             :      0.000u      0.000s      0.001w      1 calls
Grad: JK                            :      0.017u      0.000s      0.040w      1 calls
JKGrad: Amn                         :      0.000u      0.000s      0.002w      1 calls
JKGrad: Awmn                        :      0.000u      0.000s      0.000w      1 calls
JKGrad: AB                          :      0.017u      0.000s      0.005w      1 calls
JKGrad: UV                          :      0.000u      0.000s      0.000w      1 calls
JKGrad: ABx                         :      0.000u      0.000s      0.002w      1 calls
JKGrad: Amnx                        :      0.000u      0.000s      0.017w      1 calls
Grad: XC                            :      0.217u      0.000s      0.129w      1 calls
V_xc gradient                       :      0.083u      0.000s      0.054w    548 calls

--------------------------------------------------------------------------------------
V: Grid                             :      0.067u      0.000s      0.038w      2 calls
| build grid                        :      0.033u      0.000s      0.023w      2 calls
| post-process grid                 :      0.033u      0.000s      0.014w      2 calls
DFH: sparsity prep                  :      0.017u      0.000s      0.013w      2 calls
| Libint2ERI::Libint2ERI            :      0.017u      0.000s      0.012w      2 calls
DFH: initialize()                   :      0.033u      0.000s      0.263w      2 calls
| Libint2ERI::Libint2ERI            :      0.000u      0.000s      0.001w      4 calls
| DFH: AO Construction              :      0.000u      0.000s      0.008w      2 calls
| DFH: AO-Met. Contraction          :      0.017u      0.000s      0.007w      2 calls
HF: Form core H                     :      0.000u      0.000s      0.005w      2 calls
HF: Form S/X                        :      0.000u      0.000s      0.001w      2 calls
HF: Guess                           :      0.033u      0.000s      0.079w      2 calls
| SAD Guess                         :      0.033u      0.000s      0.077w      2 calls
HF: Form G                          :      1.800u      0.050s      1.105w     17 calls
| RV: Form V                        :      1.800u      0.050s      1.092w     17 calls
| | Properties                      :      0.500u      0.017s      0.344w   9316 calls
| | Functional                      :      0.650u      0.000s      0.380w   9316 calls
| | V_xc                            :      0.617u      0.000s      0.347w   9316 calls
| JK: D                             :      0.000u      0.000s      0.000w     17 calls
| JK: USO2AO                        :      0.000u      0.000s      0.000w     17 calls
| JK: JK                            :      0.000u      0.000s      0.010w     17 calls
| | DFH: compute_JK()               :      0.000u      0.000s      0.010w     17 calls
| | | DFH: Grabbing AOs             :      0.000u      0.000s      0.000w     17 calls
| | | DFH: compute_J                :      0.000u      0.000s      0.001w     17 calls
| | | DFH: compute_K                :      0.000u      0.000s      0.009w     17 calls
| JK: AO2USO                        :      0.000u      0.000s      0.000w     17 calls
HF: Form F                          :      0.000u      0.000s      0.000w     17 calls
HF: Form D                          :      0.000u      0.000s      0.000w     17 calls
HF: DIIS                            :      0.050u      0.000s      0.036w     15 calls
HF: Form C                          :      0.000u      0.000s      0.003w     15 calls
Grad: V T Perturb                   :      0.000u      0.000s      0.002w      1 calls
Grad: S                             :      0.000u      0.000s      0.001w      1 calls
Grad: JK                            :      0.017u      0.000s      0.040w      1 calls
| JKGrad: Amn                       :      0.000u      0.000s      0.002w      1 calls
| | Libint2ERI::Libint2ERI          :      0.000u      0.000s      0.000w      1 calls
| JKGrad: Awmn                      :      0.000u      0.000s      0.000w      1 calls
| JKGrad: AB                        :      0.017u      0.000s      0.005w      1 calls
| | Libint2ERI::Libint2ERI          :      0.000u      0.000s      0.000w      1 calls
| JKGrad: UV                        :      0.000u      0.000s      0.000w      1 calls
| JKGrad: ABx                       :      0.000u      0.000s      0.002w      1 calls
| | Libint2ERI::Libint2ERI          :      0.000u      0.000s      0.000w      1 calls
| JKGrad: Amnx                      :      0.000u      0.000s      0.017w      1 calls
| | Libint2ERI::Libint2ERI          :      0.000u      0.000s      0.001w      1 calls
Grad: XC                            :      0.217u      0.000s      0.129w      1 calls
| Properties                        :      0.100u      0.000s      0.052w    548 calls
| Functional                        :      0.033u      0.000s      0.022w    548 calls
| V_xc gradient                     :      0.083u      0.000s      0.054w    548 calls

**************************************************************************************

Host: cst14372

Timers On : Sat Jan 17 15:36:36 2026
Timers Off: Sat Jan 17 15:36:37 2026

Wall Time:        0.79 seconds

                                                       Time (seconds)
Module                                       User      System        Wall        Calls

--------------------------------------------------------------------------------------

**************************************************************************************

Host: cst14372

Timers On : Sat Jan 17 15:42:55 2026
Timers Off: Sat Jan 17 15:42:57 2026

Wall Time:        1.96 seconds

                                                       Time (seconds)
Module                                       User      System        Wall        Calls
Total PK formation time             :      0.033u      0.000s      0.023w      2 calls
Libint2ERI::Libint2ERI              :      0.000u      0.000s      0.018w     10 calls
HF: Form core H                     :      0.000u      0.000s      0.009w      2 calls
HF: Form S/X                        :      0.000u      0.000s      0.001w      2 calls
HF: Guess                           :      0.050u      0.033s      0.092w      2 calls
SAD Guess                           :      0.050u      0.033s      0.083w      2 calls
HF: Form G                          :      0.817u      0.000s      0.129w     17 calls
JK: D                               :      0.000u      0.000s      0.000w     17 calls
JK: USO2AO                          :      0.000u      0.000s      0.000w     17 calls
JK: JK                              :      0.000u      0.000s      0.001w     17 calls
PK computes JK                      :      0.000u      0.000s      0.001w     17 calls
JK: AO2USO                          :      0.000u      0.000s      0.000w     17 calls
RV: Form V                          :      0.817u      0.000s      0.126w      8 calls
Properties                          :      0.160p                           4384 calls
Functional                          :      0.177p                           4384 calls
V_xc                                :      0.163p                           4384 calls
HF: Form F                          :      0.000u      0.000s      0.000w     17 calls
HF: Form D                          :      0.000u      0.000s      0.000w     17 calls
HF: DIIS                            :      1.000u      3.433s      0.751w     15 calls
HF: Form C                          :      0.017u      0.000s      0.003w     15 calls
V: Grid                             :      0.033u      0.000s      0.012w      1 calls
build grid                          :      0.017u      0.000s      0.005w      1 calls
post-process grid                   :      0.017u      0.000s      0.007w      1 calls

--------------------------------------------------------------------------------------
Total PK formation time             :      0.033u      0.000s      0.023w      2 calls
| Libint2ERI::Libint2ERI            :      0.000u      0.000s      0.018w     10 calls
HF: Form core H                     :      0.000u      0.000s      0.009w      2 calls
HF: Form S/X                        :      0.000u      0.000s      0.001w      2 calls
HF: Guess                           :      0.050u      0.033s      0.092w      2 calls
| SAD Guess                         :      0.050u      0.033s      0.083w      2 calls
HF: Form G                          :      0.817u      0.000s      0.129w     17 calls
| JK: D                             :      0.000u      0.000s      0.000w     17 calls
| JK: USO2AO                        :      0.000u      0.000s      0.000w     17 calls
| JK: JK                            :      0.000u      0.000s      0.001w     17 calls
| | PK computes JK                  :      0.000u      0.000s      0.001w     17 calls
| JK: AO2USO                        :      0.000u      0.000s      0.000w     17 calls
| RV: Form V                        :      0.817u      0.000s      0.126w      8 calls
| | Properties                      :      0.160p                           4384 calls
| | Functional                      :      0.177p                           4384 calls
| | V_xc                            :      0.163p                           4384 calls
HF: Form F                          :      0.000u      0.000s      0.000w     17 calls
HF: Form D                          :      0.000u      0.000s      0.000w     17 calls
HF: DIIS                            :      1.000u      3.433s      0.751w     15 calls
HF: Form C                          :      0.017u      0.000s      0.003w     15 calls
V: Grid                             :      0.033u      0.000s      0.012w      1 calls
| build grid                        :      0.017u      0.000s      0.005w      1 calls
| post-process grid                 :      0.017u      0.000s      0.007w      1 calls

**************************************************************************************

Host: cst14372

Timers On : Sat Jan 17 15:47:07 2026
Timers Off: Sat Jan 17 15:48:43 2026

Wall Time:       95.67 seconds

                                                       Time (seconds)
Module                                       User      System        Wall        Calls
Total PK formation time             :      8.067u      2.083s      3.895w    505 calls
Libint2ERI::Libint2ERI              :      1.783u      1.250s      1.932w   2525 calls
HF: Form core H                     :      0.367u      1.517s      2.203w    505 calls
HF: Form S/X                        :      0.100u      0.017s      0.063w    505 calls
HF: Guess                           :     11.650u      7.717s     27.535w    505 calls
SAD Guess                           :     11.333u      7.550s     26.760w    505 calls
HF: Form G                          :      0.350u      0.000s      0.252w   4518 calls
JK: D                               :      0.000u      0.000s      0.012w   4518 calls
JK: USO2AO                          :      0.000u      0.000s      0.006w   4518 calls
JK: JK                              :      0.317u      0.000s      0.198w   4518 calls
PK computes JK                      :      0.283u      0.000s      0.191w   4518 calls
JK: AO2USO                          :      0.000u      0.000s      0.004w   4518 calls
HF: Form F                          :      0.050u      0.067s      0.071w   4518 calls
HF: Form D                          :      0.000u      0.000s      0.013w   4518 calls
HF: DIIS                            :     11.733u      4.583s     10.086w   4013 calls
HF: Form C                          :      1.267u      0.033s      0.830w   4013 calls

--------------------------------------------------------------------------------------
Total PK formation time             :      8.067u      2.083s      3.895w    505 calls
| Libint2ERI::Libint2ERI            :      1.783u      1.250s      1.932w   2525 calls
HF: Form core H                     :      0.367u      1.517s      2.203w    505 calls
HF: Form S/X                        :      0.100u      0.017s      0.063w    505 calls
HF: Guess                           :     11.650u      7.717s     27.535w    505 calls
| SAD Guess                         :     11.333u      7.550s     26.760w    505 calls
HF: Form G                          :      0.350u      0.000s      0.252w   4518 calls
| JK: D                             :      0.000u      0.000s      0.012w   4518 calls
| JK: USO2AO                        :      0.000u      0.000s      0.006w   4518 calls
| JK: JK                            :      0.317u      0.000s      0.198w   4518 calls
| | PK computes JK                  :      0.283u      0.000s      0.191w   4518 calls
| JK: AO2USO                        :      0.000u      0.000s      0.004w   4518 calls
HF: Form F                          :      0.050u      0.067s      0.071w   4518 calls
HF: Form D                          :      0.000u      0.000s      0.013w   4518 calls
HF: DIIS                            :     11.733u      4.583s     10.086w   4013 calls
HF: Form C                          :      1.267u      0.033s      0.830w   4013 calls

**************************************************************************************

Host: cst14372

Timers On : Sat Jan 17 15:51:03 2026
Timers Off: Sat Jan 17 15:51:10 2026

Wall Time:        6.10 seconds

                                                       Time (seconds)
Module                                       User      System        Wall        Calls

--------------------------------------------------------------------------------------

**************************************************************************************

Host: cst14372

Timers On : Sat Jan 17 15:56:56 2026
Timers Off: Sat Jan 17 15:57:16 2026

Wall Time:       20.52 seconds

                                                       Time (seconds)
Module                                       User      System        Wall        Calls

--------------------------------------------------------------------------------------

**************************************************************************************

Host: cst14372

Timers On : Sat Jan 17 15:55:05 2026
Timers Off: Sat Jan 17 15:57:17 2026

Wall Time:      132.02 seconds

                                                       Time (seconds)
Module                                       User      System        Wall        Calls

--------------------------------------------------------------------------------------

**************************************************************************************

Host: cst14372

Timers On : Sat Jan 17 16:01:43 2026
Timers Off: Sat Jan 17 16:02:45 2026

Wall Time:       61.56 seconds

                                                       Time (seconds)
Module                                       User      System        Wall        Calls

--------------------------------------------------------------------------------------

**************************************************************************************

Host: cst14372

Timers On : Sat Jan 17 16:10:51 2026
Timers Off: Sat Jan 17 16:10:52 2026

Wall Time:        1.15 seconds

                                                       Time (seconds)
Module                                       User      System        Wall        Calls

--------------------------------------------------------------------------------------

**************************************************************************************
