5
Properties=species:S:1:pos:R:3:momenta:R:3:forces:R:3 energy=-3129.5683746575714 pbc="F F F"
C       -3.39688740       0.53967010       0.00460282      -0.46377032      -0.34397107       0.33469077       0.00001256       0.00001180       0.00000818
O       -2.08031976       0.68314294      -0.44876624      -0.14996615      -0.04562984      -0.23510568      -0.00002501       0.00000031      -0.00001938
H       -1.37845513       0.59830276       0.23490682       0.13199270       0.12824684       0.11015896       0.00000955       0.00000186       0.00001582
H       -4.00280331       1.36122894      -0.35925480       0.31243667       0.02560926      -0.05244599       0.00000895       0.00000229      -0.00000360
H       -3.86689878      -0.46705164       0.20435591       0.16930710       0.23574481      -0.15729806      -0.00000605      -0.00001626      -0.00000101
5
Properties=species:S:1:pos:R:3:momenta:R:3:forces:R:3 energy=-3129.474515763229 pbc="F F F"
C       -3.40337451       0.53564505       0.00966997      -0.27633982      -0.09283201       0.27085821       1.57239675       1.69351267      -0.43027177
O       -2.08145775       0.68251141      -0.45113883       0.00363378      -0.06145022      -0.12067646       1.19769021      -0.12394057       0.91691280
H       -1.35830478       0.62415979       0.24883464       0.04950816       0.13812729       0.00542504      -0.73401527       0.03167516      -0.82132294
H       -3.94820220       1.37078392      -0.37043564       0.21964836       0.09045814      -0.06658868      -0.85493635       0.54515653      -0.13203270
H       -3.84628980      -0.44447874       0.17888822       0.00354953      -0.07430320      -0.08901812      -1.18113534      -2.14640380       0.46671461
5
Properties=species:S:1:pos:R:3:momenta:R:3:forces:R:3 energy=-3129.5061605690826 pbc="F F F"
C       -3.40540897       0.53600859       0.01358565       0.00629093       0.05516004       0.22224083       0.95827864      -0.66795428      -0.03798266
O       -2.08005870       0.68162362      -0.45161637       0.19647352      -0.08122444       0.02022289       0.34828557      -0.07117706       0.23889818
H       -1.36279996       0.65012487       0.23608062      -0.08775434       0.11807302      -0.11216575      -0.50335206      -0.26637509      -0.09766357
H       -3.92470674       1.39848566      -0.38616454       0.01499322       0.17819338      -0.09147413      -1.01640585       0.04793346      -0.01409025
H       -3.86325390      -0.48838649       0.16829266      -0.13000333      -0.27020200      -0.03882385       0.21319371       0.95757298      -0.08916169
5
Properties=species:S:1:pos:R:3:momenta:R:3:forces:R:3 energy=-3129.4541464247154 pbc="F F F"
C       -3.40446573       0.53507988       0.01706987       0.07560686      -0.15408501       0.18480123      -0.00295781      -0.23604576      -0.58110892
O       -2.07802080       0.68055861      -0.45165820       0.08471363      -0.09103038      -0.06633165      -1.08344195      -0.03491958      -0.87514953
H       -1.38429308       0.66663621       0.22172759      -0.10436726       0.04852679       0.00474289       0.31320350      -0.34862271       1.03394265
H       -3.93544011       1.42352800      -0.40007582      -0.09000068       0.02525520      -0.02749114      -0.01760535      -1.47528119       0.66481694
H       -3.87461228      -0.50197001       0.15570408       0.03404745       0.17133340      -0.09572132       0.79080161       2.09486925      -0.24250113
5
Properties=species:S:1:pos:R:3:momenta:R:3:forces:R:3 energy=-3129.4894158260277 pbc="F F F"
C       -3.40299749       0.53422393       0.01870363       0.12850309       0.15225514      -0.00225813       0.66721041       2.66684617      -1.07805619
O       -2.07798955       0.67940123      -0.45336890      -0.04302948      -0.09768210      -0.18656682      -0.06455488      -0.04026342      -0.14730269
H       -1.39687804       0.67098958       0.23991047      -0.02518380       0.00447479       0.15656299       0.31280713      -0.11314451       0.32236050
H       -3.95068970       1.40060282      -0.39164620      -0.06624096      -0.23532178       0.10890293       0.00430157      -0.77430232       0.52644304
H       -3.86476881      -0.45482901       0.13677659       0.00595114       0.17627396      -0.07664096      -0.91976424      -1.73913592       0.37655534
5
Properties=species:S:1:pos:R:3:momenta:R:3:forces:R:3 energy=-3129.5128431521384 pbc="F F F"
C       -3.39953900       0.54030770       0.01726423       0.30671883       0.49788511      -0.14132352       1.02433644      -0.12755448      -0.11606935
O       -2.07823232       0.67815100      -0.45540932       0.02441513      -0.10577321      -0.11420564       0.54039536      -0.03704344       0.77241088
H       -1.39884093       0.66996773       0.27033289      -0.01096231      -0.01612369       0.12710082      -0.16329079      -0.14213169      -0.51169992
H       -3.96924461       1.35142506      -0.36543909      -0.16282832      -0.20082807       0.12741879      -1.12917729       1.25287994      -0.43607160
H       -3.88160799      -0.45727799       0.12968406      -0.15734334      -0.17516014       0.00100955      -0.27226371      -0.94615034       0.29142999
5
Properties=species:S:1:pos:R:3:momenta:R:3:forces:R:3 energy=-3129.5086448337843 pbc="F F F"
C       -3.39338882       0.54590319       0.01531458       0.38433982       0.10706974      -0.08648858      -0.75734602      -2.34138595       0.17790488
O       -2.07743950       0.67681431      -0.45584572       0.08781564      -0.11084420       0.03635772       0.07575837      -0.00329511       0.59613419
H       -1.40628578       0.66358660       0.28459802      -0.07196346      -0.04948320       0.02273180      -0.34788896      -0.14004851      -0.43066062
H       -4.02500139       1.34207490      -0.35232856      -0.38176814       0.08691971       0.01304880      -0.29889238       0.73751159      -0.26496887
H       -3.90427358      -0.48700472       0.13246622      -0.01842385      -0.03366206       0.01435025       1.32836900       1.74721798      -0.07840958
5
Properties=species:S:1:pos:R:3:momenta:R:3:forces:R:3 energy=-3129.4724959701175 pbc="F F F"
C       -3.38954219       0.54581288       0.01353699       0.03808645       0.00873250      -0.16648353      -2.17274639       1.26466424      -0.84184314
O       -2.07638403       0.67547213      -0.45489368       0.07605266      -0.10651750       0.10178740      -0.17609648       0.03245799       0.09735761
H       -1.42460339       0.65283868       0.28307608      -0.09860548      -0.05160512      -0.02579279       0.16069837       0.12643486      -0.05910440
H       -4.08720158       1.35663882      -0.34688337      -0.18094231      -0.00159721       0.07461849       1.88999372      -1.12585619       0.65605810
H       -3.88634337      -0.46844152       0.13461346       0.16540868       0.15098733       0.01587043       0.29815077      -0.29770090       0.14753183
5
Properties=species:S:1:pos:R:3:momenta:R:3:forces:R:3 energy=-3129.4891036332538 pbc="F F F"
C       -3.39202465       0.54874554       0.00944047      -0.30872386       0.35943921      -0.32460878      -1.19831427       1.51984684      -0.54525403
O       -2.07574140       0.67419968      -0.45363601       0.02402249      -0.10054456       0.09809145      -0.31391087       0.03993448      -0.04347568
H       -1.43633915       0.64635717       0.27875181       0.00011515      -0.01117456      -0.01219553       0.79954319       0.23616696       0.12305589
H       -4.08709097       1.33739173      -0.32095832       0.15728406      -0.16569867       0.17634560       1.15794383      -0.23031713       0.20942498
H       -3.85533795      -0.45746126       0.14186364       0.12730215      -0.08202142       0.06236725      -0.44526188      -1.56563115       0.25624883
5
Properties=species:S:1:pos:R:3:momenta:R:3:forces:R:3 energy=-3129.474931169849 pbc="F F F"
C       -3.39786598       0.55472955       0.00406419      -0.32031530       0.18167286      -0.27167041       1.18647199      -3.75382722       1.16061437
O       -2.07590308       0.67302241      -0.45236868      -0.06006545      -0.09109438       0.11878827      -0.55768743       0.04752786       0.25304405
H       -1.42089103       0.64789972       0.27760868       0.14726077       0.02107671      -0.00672713       0.48862488       0.07258269      -0.08752276
H       -4.05123769       1.31691089      -0.29060823       0.10835092       0.05207425       0.08878585      -1.69127964       2.44284599      -1.07782763
H       -3.83446969      -0.49114078       0.15660362       0.12476906      -0.16372945       0.07082342       0.57387020       1.19087068      -0.24830804
5
Properties=species:S:1:pos:R:3:momenta:R:3:forces:R:3 energy=-3129.5436929770785 pbc="F F F"
C       -3.40130950       0.55188020       0.00143786      -0.15103417      -0.40179569      -0.08515730      -0.08419016      -0.34330145       0.22520016
O       -2.07709068       0.67198294      -0.45049643      -0.10358608      -0.07543471       0.19323713       0.24867368       0.12326140       0.43756499
H       -1.38777053       0.65327450       0.27201869       0.16831492       0.03672613      -0.06494977      -0.23073062       0.14015735      -0.47778415
H       -4.05891843       1.36700942      -0.29151445      -0.11286678       0.36516281      -0.06036616       0.28166969      -0.18638969      -0.06316586
H       -3.80002794      -0.49616366       0.16467789       0.19917210       0.07534145       0.01723609      -0.21542261       0.26627239      -0.12181515
5
Properties=species:S:1:pos:R:3:momenta:R:3:forces:R:3 energy=-3129.4565609109486 pbc="F F F"
C       -3.40442507       0.54717774      -0.00022881      -0.23928720      -0.07911597      -0.14243238      -0.42917195       2.53938483      -0.50412526
O       -2.07793914       0.67121365      -0.44770418      -0.03549713      -0.04988128       0.24983546       0.25627794       0.13039713       0.09501672
H       -1.36231036       0.66377981       0.25070354       0.08239678       0.07251188      -0.14637066      -0.53100767       0.18154643      -0.26759383
H       -4.06216995       1.41708588      -0.29775477       0.12032182       0.08925770       0.01830950       1.53997064      -2.01232310       0.61148204
H       -3.77164577      -0.48850220       0.16777419       0.07206572      -0.03277233       0.02065807      -0.83606896      -0.83900529       0.06522033
5
Properties=species:S:1:pos:R:3:momenta:R:3:forces:R:3 energy=-3129.5182253309454 pbc="F F F"
C       -3.40854226       0.54918378      -0.00310540      -0.21360455       0.21903498      -0.17764699       1.14480010      -0.66977592       0.45624383
O       -2.07827100       0.67077294      -0.44470128      -0.04179228      -0.02112777       0.22460436      -0.45518158       0.14499408      -0.34261768
H       -1.35442621       0.68035584       0.22000318       0.01336231       0.08993528      -0.15145847      -0.10806759      -0.04428733       0.24845504
H       -4.01533568       1.39988427      -0.28456767       0.29974588      -0.21056458       0.09336823      -0.30264718      -0.29559294      -0.11127560
H       -3.77203780      -0.50478502       0.17190196      -0.05771136      -0.07727791       0.01113286      -0.27890376       0.86466211      -0.25080559
5
Properties=species:S:1:pos:R:3:momenta:R:3:forces:R:3 energy=-3129.4643775424106 pbc="F F F"
C       -3.40863064       0.54878373      -0.00443455       0.26534596      -0.34625020       0.04068492       2.82582540      -2.64340762       1.11739311
O       -2.07970604       0.67065112      -0.44250271      -0.20560501      -0.00112103       0.12583436      -0.80373558       0.08112618      -0.55610049
H       -1.35096726       0.69543078       0.19861136       0.03392431       0.05996525      -0.05754090       0.22838007      -0.18037657       0.53788090
H       -3.98362256       1.37828831      -0.27743618      -0.04160082       0.07300142      -0.04853662      -2.11625988       1.94327945      -0.86647929
H       -3.78337976      -0.49156369       0.16710420      -0.05206445       0.21440456      -0.06044175      -0.13421002       0.79937856      -0.23269423
5
Properties=species:S:1:pos:R:3:momenta:R:3:forces:R:3 energy=-3129.489448620524 pbc="F F F"
C       -3.40103668       0.54262042      -0.00294660       0.57845879      -0.21214833       0.08836802       0.39712063       2.89486953      -0.38314650
O       -2.08274756       0.67074730      -0.44158692      -0.25693481       0.01726778       0.02486382       0.14682546       0.09685407      -0.50655673
H       -1.34118423       0.70466175       0.19574488       0.05400030       0.03931591       0.01935692      -0.13620921      -0.05709285       0.28116377
H       -4.01448985       1.40868932      -0.29531404      -0.18126980       0.13106403      -0.09280696       0.54709525      -1.11006876       0.32683225
H       -3.80450763      -0.45928221       0.15558312      -0.19425449       0.02450061      -0.03978180      -0.95483214      -1.82456199       0.28170720
5
Properties=species:S:1:pos:R:3:momenta:R:3:forces:R:3 energy=-3129.497902842365 pbc="F F F"
C       -3.39198894       0.54359517      -0.00215074       0.46553699       0.26201326       0.02145791      -1.41099089       0.85788337      -0.01355183
O       -2.08557615       0.67109365      -0.44191374      -0.19538723       0.04105588      -0.08049266       0.39728272       0.14736629      -0.57200137
H       -1.33686926       0.71061453       0.20423624      -0.02596682       0.01608824       0.06568684      -0.61590653      -0.22118548       0.21609907
H       -4.03173615       1.40546141      -0.30431144       0.02437167      -0.18111144       0.00595755       1.11302272      -1.56926873       0.47717537
H       -3.85449068      -0.47911906       0.15179325      -0.26855461      -0.13804594      -0.01260965       0.51659197       0.78520455      -0.10772124
5
Properties=species:S:1:pos:R:3:momenta:R:3:forces:R:3 energy=-3129.499016215155 pbc="F F F"
C       -3.38664950       0.54670714      -0.00115003       0.21559755      -0.00668186       0.13805631      -0.65548283      -2.62077455       1.02121632
O       -2.08745693       0.67177617      -0.44355467      -0.10190473       0.06989212      -0.17832227       0.68191146       0.14452024      -0.32005979
H       -1.35418783       0.70819704       0.22063431      -0.14758824      -0.04524840       0.09605649      -0.48781166      -0.34256366       0.01797744
H       -4.01651959       1.35474198      -0.29954560       0.06048346      -0.24255680       0.00767825      -0.87671507       1.15877714      -0.51421313
H       -3.88615993      -0.47389642       0.14475005      -0.02658804       0.22459493      -0.06346877       1.33809810       1.66004083      -0.20492084
5
Properties=species:S:1:pos:R:3:momenta:R:3:forces:R:3 energy=-3129.4740489545275 pbc="F F F"
C       -3.38367583       0.54397089       0.00243351       0.15538095      -0.19253908       0.26595744      -0.40457232       1.05646715       0.09404825
O       -2.08767083       0.67280629      -0.44596862       0.07555468       0.09678770      -0.20760320       0.92012093       0.10998655      -0.10891173
H       -1.38791688       0.69412248       0.23785849      -0.17357711      -0.09022401       0.07699614       0.23029331      -0.08871388      -0.08805292
H       -4.02346867       1.33532353      -0.30915179      -0.10806848       0.03063734      -0.09650295      -0.29059359       0.91697310      -0.27790535
H       -3.87752001      -0.42414925       0.13274615       0.05070996       0.15533804      -0.03884743      -0.45524833      -1.99471292       0.38082175
5
Properties=species:S:1:pos:R:3:momenta:R:3:forces:R:3 energy=-3129.490721610732 pbc="F F F"
C       -3.38229148       0.54347928       0.00655795      -0.02294704       0.16079901       0.22351362      -1.52426481       1.88980327      -0.35536928
O       -2.08575609       0.67410840      -0.44873813       0.22965294       0.11541874      -0.25114817       0.71083571       0.11197376      -0.32358338
H       -1.41414515       0.67605232       0.25281639      -0.08196235      -0.09136183       0.08413321       0.62621660       0.02457780       0.13071993
H       -4.04231472       1.35082599      -0.32960805      -0.05314292       0.09402237      -0.09827634       0.68892415      -0.14085553       0.18243163
H       -3.87933199      -0.43639073       0.13305682      -0.07160062      -0.27887830       0.04177768      -0.50171165      -1.88549930       0.36580110
5
Properties=species:S:1:pos:R:3:momenta:R:3:forces:R:3 energy=-3129.4826637749534 pbc="F F F"
C       -3.38586067       0.54739913       0.00987852      -0.44329781       0.17176750       0.20607582      -2.33593451      -2.17913884       0.29171031
O       -2.08226844       0.67567273      -0.45223298       0.31552303       0.13887838      -0.31696284       0.09249062       0.09970480      -0.26494181
H       -1.41966971       0.65790989       0.27224343       0.00940809      -0.10017165       0.11683208       0.18446954      -0.12026776       0.15358487
H       -4.03800619       1.36250606      -0.34450896       0.09155285       0.01616127      -0.05642256       0.52031806      -0.40831678       0.13189206
H       -3.89094285      -0.50146512       0.14443407       0.02681384      -0.22663551       0.05047751       1.53865628       2.60801858      -0.31224543
5
Properties=species:S:1:pos:R:3:momenta:R:3:forces:R:3 energy=-3129.5419835467933 pbc="F F F"
C       -3.39618283       0.54617031       0.01378666      -0.76148383      -0.27364018       0.25851861      -0.64887912      -0.83332027      -0.08591316
O       -2.07822146       0.67746429      -0.45609939       0.36419014       0.14967577      -0.27468585       0.63957323       0.00133321       0.81896750
H       -1.41730857       0.63647723       0.29385790       0.00519603      -0.11324745       0.07510261      -0.09893845       0.06698805      -0.68837035
H       -4.01521433       1.36145150      -0.35465140       0.12096505      -0.00912653      -0.05265292      -0.10642790       0.10324994      -0.01242210
H       -3.85733405      -0.49277138       0.14776168       0.27113261       0.24633839      -0.00628245       0.21467224       0.66174907      -0.03226188
5
Properties=species:S:1:pos:R:3:momenta:R:3:forces:R:3 energy=-3129.4670844405296 pbc="F F F"
C       -3.40852794       0.54259750       0.01734112      -0.68451642      -0.06804040       0.15175832       1.23134699       1.98321296      -0.80561742
O       -2.07286810       0.67924642      -0.45821111       0.49872253       0.13589407      -0.05956520       0.39621529      -0.13136188       1.12483352
H       -1.41730122       0.61766843       0.29245329       0.00027938      -0.07214974      -0.09202209       0.07270193       0.29003437      -0.77796325
H       -3.99489270       1.36287123      -0.36448310       0.08174119       0.02803737      -0.04575556      -0.29392592       0.24415195       0.05332368
H       -3.81553142      -0.46109581       0.15016144       0.10377333      -0.02374130       0.04558453      -1.40633830      -2.38603740       0.40542348
5
Properties=species:S:1:pos:R:3:momenta:R:3:forces:R:3 energy=-3129.5117461210752 pbc="F F F"
C       -3.41724890       0.54401385       0.01860743      -0.35916179       0.14800407       0.01811216       1.91124525      -0.80711709      -0.36151260
O       -2.06683352       0.68075939      -0.45783810       0.42149126       0.11200235       0.09057820      -1.49168597      -0.09420802       0.23699375
H       -1.41319080       0.60854971       0.26476994       0.05547085      -0.02852788      -0.15602129       0.44692347       0.08064076       0.29690027
H       -3.98652211       1.37365513      -0.37318882      -0.00605256       0.08406039      -0.04922668      -0.57111167       0.26082161      -0.09980101
H       -3.81987719      -0.50365170       0.16554116      -0.11174776      -0.31553893       0.09655761      -0.29537108       0.55986275      -0.07258041
5
Properties=species:S:1:pos:R:3:momenta:R:3:forces:R:3 energy=-3129.4540964753774 pbc="F F F"
C       -3.42012295       0.54314454       0.01860391      -0.00486815      -0.29470178      -0.01983302       1.56442605      -1.89869490      -0.41797513
O       -2.06433300       0.68204384      -0.45688307      -0.05512831       0.09821849       0.04506345      -2.63503400      -0.06925959      -0.30602765
H       -1.39436006       0.60252935       0.24767707       0.12809394      -0.03879992       0.00107692       0.15733195      -0.07237934       0.85791073
H       -3.99601952       1.39034386      -0.38355961      -0.06468431       0.05106208      -0.04240237       0.19331162      -0.77375966       0.32610245
H       -3.83465268      -0.52434849       0.17788850      -0.00341317       0.18422114       0.01609502       0.71996439       2.81409350      -0.46001040
5
Properties=species:S:1:pos:R:3:momenta:R:3:forces:R:3 energy=-3129.481850111701 pbc="F F F"
C       -3.41775019       0.53810158       0.01694942       0.30419139      -0.15788611      -0.21554880       1.80219807       2.69259720      -1.34531902
O       -2.06742701       0.68312234      -0.45625987      -0.37945061       0.07292156       0.09501878      -0.67545505      -0.19854391       0.79130412
H       -1.37097620       0.59550036       0.25640814       0.08815588      -0.02316602       0.04492623      -0.53570168       0.21148749      -0.38246503
H       -3.99986499       1.38139027      -0.38224651       0.03618304      -0.14223502       0.06306803       0.51560249      -0.76514257       0.53343070
H       -3.83335585      -0.46539367       0.17766723      -0.04907970       0.25036558       0.01253576      -1.10664382      -1.94039820       0.40304923
5
Properties=species:S:1:pos:R:3:momenta:R:3:forces:R:3 energy=-3129.5231122106434 pbc="F F F"
C       -3.40962451       0.53950080       0.01156504       0.69894024       0.23813759      -0.40439830       2.06873480      -0.00968746      -0.19621734
O       -2.07252668       0.68375255      -0.45394522      -0.43618297       0.02959750       0.28707087      -0.23296406      -0.20445620       0.93120023
H       -1.36601193       0.59505049       0.25433845      -0.04061257       0.01440842      -0.07315754      -0.64384212       0.09028884      -0.58406668
H       -3.98898936       1.34850317      -0.36409071       0.03179802      -0.13331658       0.09196126      -0.77381773       1.07129073      -0.39064201
H       -3.86507662      -0.45873208       0.18900143      -0.25394271      -0.14882693       0.09852371      -0.41811089      -0.94743590       0.23972580
5
Properties=species:S:1:pos:R:3:momenta:R:3:forces:R:3 energy=-3129.5229218461695 pbc="F F F"
C       -3.39552996       0.54045610       0.00561659       0.94965827      -0.22363374      -0.28823419      -0.13810996      -2.79976686       0.76791029
O       -2.07849260       0.68393006      -0.44971443      -0.56034988       0.00607203       0.35901527      -0.88544190      -0.00630502      -0.29636673
H       -1.38329169       0.59735475       0.23449654      -0.11412526      -0.00064259      -0.09595648       0.02115842      -0.18815284       0.38913833
H       -4.00342060       1.35042520      -0.35829015      -0.17057392       0.14234266      -0.03276570      -0.46083107       0.73202457      -0.38684578
H       -3.90662037      -0.47715880       0.20677135      -0.10460922       0.07586164       0.05794110       1.46322451       2.26220015      -0.47383611
5
Properties=species:S:1:pos:R:3:momenta:R:3:forces:R:3 energy=-3129.491533234489 pbc="F F F"
C       -3.38182792       0.53498085       0.00141253       0.65677564      -0.27415700      -0.26885554      -2.18627266       2.01842021      -0.43144578
O       -2.08615004       0.68408560      -0.44601298      -0.65042576       0.02480285       0.22608962       0.15536859       0.15461850      -0.82807451
H       -1.39958878       0.59416627       0.22607585      -0.03009986      -0.02667935       0.01396583       0.68277455      -0.04069035       0.53046714
H       -4.02913221       1.37420765      -0.36382273      -0.02638459       0.03259621       0.00866826       1.45759028      -1.26128635       0.55167084
H       -3.90634184      -0.43498010       0.21206944       0.05013457       0.24343730       0.02013182      -0.10946075      -0.87106200       0.17738231
5
Properties=species:S:1:pos:R:3:momenta:R:3:forces:R:3 energy=-3129.4868990201758 pbc="F F F"
C       -3.37460947       0.53436253      -0.00367170       0.22591444       0.19414380      -0.33885650      -2.19577938       1.88632622      -0.00655177
O       -2.09336420       0.68456894      -0.44407792      -0.47224082       0.05284157       0.10790530       1.71154545       0.12582666      -0.28714067
H       -1.39337068       0.58904533       0.23512199       0.08292041      -0.02341390       0.05408543       0.36773635       0.03028654      -0.19276912
H       -4.00837195       1.35927938      -0.35284213       0.21283214      -0.15692048       0.08998490       0.66414520      -0.39540583       0.13184040
H       -3.90482950      -0.41523489       0.22191137      -0.04942617      -0.06665099       0.08688088      -0.54764762      -1.64703360       0.35462116
5
Properties=species:S:1:pos:R:3:momenta:R:3:forces:R:3 energy=-3129.4418593493374 pbc="F F F"
C       -3.37418133       0.53798437      -0.00817595      -0.14557178       0.05571357      -0.13720197      -1.45150991      -3.41329321       2.05812750
O       -2.09664158       0.68534769      -0.44288274      -0.04043602       0.07210911       0.09774908       2.36585602       0.07399887       0.03960440
H       -1.37451616       0.58413022       0.23792513       0.08719185      -0.03331194      -0.03824703      -0.29793810      -0.14242349      -0.58117635
H       -3.96953952       1.33692412      -0.34041647       0.09806624       0.01856481      -0.00579158      -1.75721935       2.10159884      -1.06071189
H       -3.91559931      -0.44348160       0.24138385       0.00074971      -0.11307555       0.08349151       1.14081134       1.38011899      -0.45584366
5
Properties=species:S:1:pos:R:3:momenta:R:3:forces:R:3 energy=-3129.5284351387613 pbc="F F F"
C       -3.37905029       0.53399531      -0.00735061      -0.47261852      -0.40175073       0.18295349      -1.97261466       0.40482953       0.56159831
O       -2.09432050       0.68632365      -0.44168327       0.41028449       0.08770552       0.09063408       2.05658673       0.09890220      -0.18457942
H       -1.36428622       0.57499941       0.21996628       0.02040720      -0.05657213      -0.13938854      -0.22739627      -0.04318006      -0.35969078
H       -3.97939929       1.37334152      -0.35866040      -0.13100478       0.26467473      -0.14096423       0.07902206      -0.35508786       0.03916979
H       -3.89479296      -0.43872620       0.24871414       0.17293162       0.10594261       0.00676521       0.06440214      -0.10546381      -0.05649790
5
Properties=species:S:1:pos:R:3:momenta:R:3:forces:R:3 energy=-3129.4803046921006 pbc="F F F"
C       -3.38960737       0.53038150      -0.00443849      -0.78499249       0.04460654       0.13234772      -1.04180388       3.01553695      -0.68128140
O       -2.08743242       0.68754231      -0.44103349       0.65096509       0.11264044      -0.00548565       0.29907751       0.15630649      -0.78475035
H       -1.36147241       0.56368564       0.19068014       0.02586479      -0.05948726      -0.13375365       0.29019690      -0.04123009       0.43652341
H       -3.99180799       1.40355191      -0.37849086       0.04043823      -0.00246198      -0.03941220       1.21127744      -1.83706649       0.75083873
H       -3.86873106      -0.43390457       0.25281752       0.06772438      -0.09529775       0.04630378      -0.75874797      -1.29354687       0.27866960
5
Properties=species:S:1:pos:R:3:momenta:R:3:forces:R:3 energy=-3129.5293922512415 pbc="F F F"
C       -3.40332602       0.53472557      -0.00309606      -0.82222380       0.33733304       0.07485639       1.12411178      -1.40302150       0.60031289
O       -2.07974353       0.68912158      -0.44214291       0.54806862       0.14280481      -0.17438528      -1.28778406       0.10069012      -0.75945730
H       -1.34901720       0.55002407       0.17652560       0.10158469      -0.08820446       0.00071161       0.26726642      -0.25488878       0.79743059
H       -3.96620961       1.37303448      -0.37414042       0.16312139      -0.24351030       0.05326785      -0.56572168       0.21692430      -0.18820690
H       -3.86535585      -0.46655415       0.26423433       0.00944911      -0.14842310       0.04554943       0.46212754       1.34029587      -0.45007928
5
Properties=species:S:1:pos:R:3:momenta:R:3:forces:R:3 energy=-3129.494056474477 pbc="F F F"
C       -3.41327517       0.53549375      -0.00007728      -0.32568368      -0.26018752       0.29647647       3.07260274      -1.80608369       0.61407378
O       -2.07476242       0.69090035      -0.44487899       0.27445697       0.13791993      -0.23727935      -0.99113142      -0.16124067       0.22035072
H       -1.32933301       0.52822282       0.18910781       0.07059193      -0.12700477       0.10215301      -0.59300468      -0.00853982       0.04613620
H       -3.96109771       1.35165542      -0.37719414      -0.14277382       0.07463432      -0.10530226      -1.43837203       1.59294396      -0.74010355
H       -3.85066143      -0.46075999       0.26216228       0.12340860       0.17463803      -0.05604787      -0.05009461       0.38292021      -0.14045715
5
Properties=species:S:1:pos:R:3:momenta:R:3:forces:R:3 energy=-3129.4597206161634 pbc="F F F"
C       -3.41436623       0.53209980       0.00426131       0.14371436       0.01598930       0.16261449       1.66445548       3.13079574      -1.45550416