9
Properties=species:S:1:pos:R:3:momenta:R:3:forces:R:3 energy=-4035.039802328468 pbc="F F F"
C    -4636.88553942     629.42676043   -3332.91536398    -384.11085266      52.03413683    -276.06606119       0.00000342      -0.00000071       0.00000229
C     -359.40535250     456.15157727      -9.99515383     -29.65110343      37.67651422      -0.70229108      -0.00003044       0.00004702       0.00000716
O       15.23620353     -45.82090906      21.58478977      -0.98811821      -3.06442747       2.00794024       9.60414796      -1.96660775       0.48595208
H      822.47385564       5.74261706    -163.03294079       5.68085017       0.03196498      -1.12383896      -0.00002599       0.00000101       0.00001121
H      -36.41391071    -131.38081818     719.49485197      -0.25340273      -0.91254369       4.96213518       0.00000372       0.00001209      -0.00003275
H     2800.28982751   -3119.72897389    -394.16830178      19.47413977     -21.69410115      -2.72947827      -0.00000206       0.00000232       0.00000031
H    11071.74663297   -7638.59559621    5238.39990160      76.94977875     -53.10138184      36.40818581      -0.00000048       0.00000030      -0.00000027
H    44614.18176083   -1279.11168009   34068.93436456     310.09045407      -8.89809731     236.79856358      -0.00000004      -0.00000000      -0.00000004
H       17.08504884     -46.19949855      21.67834123       2.80825427      -2.07206456       0.44484471      -9.60409609       1.96654572      -0.48594000
