9
Properties=species:S:1:pos:R:3:momenta:R:3:forces:R:3 energy=-4216.799950836795 pbc="F F F"
C        0.27522024       0.28635743       0.38191395      -0.40873613      -0.21147689      -0.59796725      -0.42623279       0.08802597      -0.10278253
C       -0.55985783       0.91755927      -0.80840230      -0.35835315       0.33251575      -0.28184987      -0.16131197       0.14894199       1.04952617
O        0.05971774      -1.16067308       0.40221515       0.30944585      -0.27531977       0.34182003       0.26203657       0.23312746      -0.03060962
H        1.32322277       0.60585804       0.35436336       0.12956671       0.07104325       0.11308127       0.24244659      -0.05401586      -0.38646401
H       -0.13745828       0.72344717       1.29932184       0.09553313       0.06665061       0.07012568      -0.20365556       0.14073364       0.62584631
H       -0.22625751       0.54177385      -1.74547366       0.20835630      -0.05351363       0.18205982       0.43396268      -0.17137694      -0.87913538
H       -1.60318161       0.60853010      -0.64616473      -0.02521891      -0.03670166       0.09130212      -0.37786474      -0.34516238       0.02180220
H       -0.56051234       2.00610553      -0.75163570       0.12355402       0.13279448       0.09018278       0.43581514      -0.15887357      -0.07051293
H        0.66411539      -1.55502071       1.05391405      -0.07414782      -0.02599215      -0.00875458      -0.20519592       0.11859969      -0.22767022
