
Running Job 1 of 1 input.inp
qchem input.inp_2610488.0 /scratch/webmo-18596/192201/qchem2610488/ 0
/usr/local/qchem/exe/qcprog.exe_s input.inp_2610488.0 /scratch/webmo-18596/192201/qchem2610488/
                  Welcome to Q-Chem
     A Quantum Leap Into The Future Of Chemistry


 Q-Chem 6.0, Q-Chem, Inc., Pleasanton, CA (2022)

 E. Epifanovsky,  A. T. B. Gilbert,  Xintian Feng,  Joonho Lee,  Yuezhi Mao,  
 N. Mardirossian,  P. Pokhilko,  A. White,  M. Wormit,  M. P. Coons,  
 A. L. Dempwolff,  Zhengting Gan,  D. Hait,  P. R. Horn,  L. D. Jacobson,  
 I. Kaliman,  J. Kussmann,  A. W. Lange,  Ka Un Lao,  D. S. Levine,  Jie Liu,  
 S. C. McKenzie,  A. F. Morrison,  K. Nanda,  F. Plasser,  D. R. Rehn,  
 M. L. Vidal,  Zhi-Qiang You,  Ying Zhu,  B. Alam,  B. Albrecht,  
 A. Aldossary,  E. Alguire,  J. H. Andersen,  V. Athavale,  D. Barton,  
 K. Begam,  A. Behn,  N. Bellonzi,  Y. A. Bernard,  E. J. Berquist,  
 H. Burton,  A. Carreras,  K. Carter-Fenk,  Romit Chakraborty,  
 Chandrima Chakravarty,  Junhan Chen,  A. D. Chien,  K. D. Closser,  
 V. Cofer-Shabica,  L. Cunha,  S. Dasgupta,  Jia Deng,  M. de Wergifosse,  
 M. Diedenhofen,  Hainam Do,  S. Ehlert,  Po-Tung Fang,  S. Fatehi,  
 Qingguo Feng,  T. Friedhoff,  B. Ganoe,  J. Gayvert,  Qinghui Ge,  
 G. Gidofalvi,  M. Goldey,  J. Gomes,  C. Gonzalez-Espinoza,  S. Gulania,  
 A. Gunina,  J. A. Gyamfi,  M. W. D. Hanson-Heine,  P. H. P. Harbach,  
 A. W. Hauser,  M. F. Herbst,  M. Hernandez Vera,  M. Hodecker,  
 Z. C. Holden,  S. Houck,  Xunkun Huang,  Kerwin Hui,  B. C. Huynh,  
 K. Ikeda,  M. Ivanov,  Hyunjun Ji,  Zuxin Jin,  Hanjie Jiang,  B. Kaduk,  
 S. Kaehler,  R. Kang,  K. Khistyaev,  Jaehoon Kim,  Yongbin Kim,  
 P. Klunzinger,  Z. Koczor-Benda,  Joong Hoon Koh,  D. Kosenkov,  
 Saikiran Kotaru,  L. Koulias,  T. Kowalczyk,  C. M. Krauter,  K. Kue,  
 A. Kunitsa,  T. Kus,  A. Landau,  K. V. Lawler,  D. Lefrancois,  S. Lehtola,  
 Rain Li,  Shaozhi Li,  Yi-Pei Li,  Jiashu Liang,  M. Liebenthal,  
 Hung-Hsuan Lin,  You-Sheng Lin,  Fenglai Liu,  Kuan-Yu Liu,  
 M. Loipersberger,  A. Luenser,  C. Malbon,  A. Manjanath,  P. Manohar,  
 E. Mansoor,  S. F. Manzer,  Shan-Ping Mao,  A. V. Marenich,  T. Markovich,  
 S. Mason,  F. Matz,  S. A. Maurer,  P. F. McLaughlin,  M. F. S. J. Menger,  
 J.-M. Mewes,  S. A. Mewes,  P. Morgante,  Mohammad Mostafanejad,  
 J. W. Mullinax,  K. J. Oosterbaan,  G. Paran,  V. Parravicini,  
 Alexander C. Paul,  Suranjan K. Paul,  F. Pavosevic,  Zheng Pei,  S. Prager,  
 E. I. Proynov,  E. Ramos,  B. Rana,  A. E. Rask,  A. Rettig,  R. M. Richard,  
 F. Rob,  E. Rossomme,  T. Scheele,  M. Scheurer,  M. Schneider,  
 P. E. Schneider,  N. Sergueev,  S. M. Sharada,  Hengyuan Shen,  
 W. Skomorowski,  D. W. Small,  C. J. Stein,  Yingli Su,  Yu-Chuan Su,  
 E. J. Sundstrom,  Zhen Tao,  J. Thirman,  Hung-Yi Tsai,  T. Tsuchimochi,  
 N. M. Tubman,  C. Utku,  S. P. Veccham,  O. Vydrov,  J. Wenzel,  
 Jonathan Wong,  J. Witte,  A. Yamada,  Chou-Hsun Yang,  Kun Yao,  
 S. Yeganeh,  S. R. Yost,  A. Zech,  F. Zeller,  Igor Ying Zhang,  
 Xing Zhang,  Yu Zhang,  D. Zuev,  A. Aspuru-Guzik,  A. T. Bell,  
 N. A. Besley,  K. B. Bravaya,  B. R. Brooks,  D. Casanova,  Jeng-Da Chai,  
 Hsing-Ta Chen,  S. Coriani,  C. J. Cramer,  A. E. DePrince, III,  
 R. A. DiStasio Jr.,  A. Dreuw,  B. D. Dunietz,  T. R. Furlani,  
 W. A. Goddard III,  S. Grimme,  S. Hammes-Schiffer,  T. Head-Gordon,  
 W. J. Hehre,  Chao-Ping Hsu,  T.-C. Jagau,  Yousung Jung,  A. Klamt,  
 Jing Kong,  D. S. Lambrecht,  Xiangyuan Li,  WanZhen Liang,  N. J. Mayhall,  
 C. W. McCurdy,  J. B. Neaton,  T. Neudecker,  C. Ochsenfeld,  
 J. A. Parkhill,  R. Peverati,  V. A. Rassolov,  Haisheng Ren,  Yihan Shao,  
 L. V. Slipchenko,  R. P. Steele,  J. E. Subotnik,  A. J. W. Thom,  
 A. Tkatchenko,  D. G. Truhlar,  T. Van Voorhis,  Fan Wang,  
 T. A. Wesolowski,  K. B. Whaley,  H. L. Woodcock III,  P. M. Zimmerman,  
 S. Faraji,  P. M. W. Gill,  M. Head-Gordon,  J. M. Herbert,  A. I. Krylov

 Contributors to earlier versions of Q-Chem not listed above: 
 R. D. Adamson,  B. Austin,  R. Baer,  J. Baker,  G. J. O. Beran,  
 K. Brandhorst,  S. T. Brown,  E. F. C. Byrd,  Arup K. Chakraborty,  
 G. K. L. Chan,  Chun-Min Chang,  Yunqing Chen,  C.-L. Cheng,  
 Siu Hung Chien,  D. M. Chipman,  D. L. Crittenden,  H. Dachsel,  
 R. J. Doerksen,  A. D. Dutoi,  R. G. Edgar,  J. Fosso-Tande,  
 L. Fusti-Molnar,  D. Ghosh,  A. Ghysels,  A. Golubeva-Zadorozhnaya,  
 J. Gonthier,  M. S. Gordon,  S. R. Gwaltney,  G. Hawkins,  J. E. Herr,  
 A. Heyden,  S. Hirata,  E. G. Hohenstein,  G. Kedziora,  F. J. Keil,  
 C. Kelley,  Jihan Kim,  R. A. King,  R. Z. Khaliullin,  P. P. Korambath,  
 W. Kurlancheek,  A. Laurent,  A. M. Lee,  M. S. Lee,  S. V. Levchenko,  
 Ching Yeh Lin,  D. Liotard,  E. Livshits,  R. C. Lochan,  I. Lotan,  
 L. A. Martinez-Martinez,  P. E. Maslen,  N. Nair,  D. P. O'Neill,  
 D. Neuhauser,  E. Neuscamman,  C. M. Oana,  R. Olivares-Amaya,  R. Olson,  
 T. M. Perrine,  B. Peters,  P. A. Pieniazek,  A. Prociuk,  Y. M. Rhee,  
 J. Ritchie,  M. A. Rohrdanz,  E. Rosta,  N. J. Russ,  H. F. Schaefer III,  
 M. W. Schmidt,  N. E. Schultz,  S. Sharma,  N. Shenvi,  C. D. Sherrill,  
 A. C. Simmonett,  A. Sodt,  T. Stein,  D. Stuck,  K. S. Thanthiriwatte,  
 V. Vanovschi,  L. Vogt,  Tao Wang,  A. Warshel,  M. A. Watson,  
 C. F. Williams,  Q. Wu,  X. Xu,  Jun Yang,  W. Zhang,  Yan Zhao

   Please cite Q-Chem as follows:
  "Software for the frontiers of quantum chemistry:
   An overview of developments in the Q-Chem 5 package"
   J. Chem. Phys. 155, 084801 (2021)
   https://doi.org/10.1063/5.0055522 (open access)

 Q-Chem 6.0.1 for Intel X86 EM64T Linux

 Parts of Q-Chem use Armadillo 9.900.5 (Nocturnal Misbehaviour).
 http://arma.sourceforge.net/

 Q-Chem begins on Wed Feb  8 13:30:57 2023  

 Host: 
0

     Scratch files written to /scratch/webmo-18596/192201/qchem2610488//
 Aug2322 |scratch|qcdevops|jenkins|workspace|build_RNUM 9009   
 Processing $rem in /usr/local/qchem/config/preferences:
 Processing $rem in /home/jmsmith/.qchemrc:
 Symmetry disabled for AIMD jobs.

 Checking the input file for inconsistencies... 	...done.

--------------------------------------------------------------
User input:
--------------------------------------------------------------
$molecule
0  1
O   1.386977   0.011218   0.109098
H   1.748442   0.720970  -0.431026
H   1.741280  -0.793653  -0.281811
O  -1.511955  -0.009629  -0.120521
H  -0.558095   0.008225   0.047352
H  -1.910308   0.077777   0.749067
$end

$rem
JOBTYPE              aimd
AIMD_METHOD          bomd
METHOD               b3lyp
BASIS                6-31g*
TIME_STEP            20        (20 a.u. = 0.48 fs)
AIMD_STEPS           1000
AIMD_INIT_VELOC      thermal
AIMD_TEMP            298
FOCK_EXTRAP_ORDER    6         request Fock matrix extrapolation
FOCK_EXTRAP_POINTS   12
$end
--------------------------------------------------------------
 ----------------------------------------------------------------
             Standard Nuclear Orientation (Angstroms)
    I     Atom           X                Y                Z
 ----------------------------------------------------------------
    1      O       1.3869770000     0.0112180000     0.1090980000
    2      H       1.7484420000     0.7209700000    -0.4310260000
    3      H       1.7412800000    -0.7936530000    -0.2818110000
    4      O      -1.5119550000    -0.0096290000    -0.1205210000
    5      H      -0.5580950000     0.0082250000     0.0473520000
    6      H      -1.9103080000     0.0777770000     0.7490670000
 ----------------------------------------------------------------
 Nuclear Repulsion Energy =          36.57922853 hartrees
 There are       10 alpha and       10 beta electrons
 Requested basis set is 6-31G(d)
 There are 16 shells and 38 basis functions

 Total QAlloc Memory Limit   2000 MB
 Mega-Array Size       188 MB
 MEM_STATIC part       192 MB


                       Distance Matrix (Angstroms)
             O (  1)   H (  2)   H (  3)   O (  4)   H (  5)
   H (  2)  0.962361
   H (  3)  0.962371  1.521972
   O (  4)  2.908086  3.355648  3.350261
   H (  5)  1.946054  2.461090  2.457332  0.968684
   H (  6)  3.359476  3.897790  3.893096  0.960473  1.525032
 
 A cutoff of  1.0D-12 yielded    135 shell pairs
 There are       794 function pairs
 Smallest overlap matrix eigenvalue = 1.48E-02

 Scale SEOQF with 1.000000e-01/1.000000e+00/1.000000e+00

 Standard Electronic Orientation quadrupole field applied
 Nucleus-field energy     =     0.0000000013 hartrees
 Guess from superposition of atomic densities
 Warning:  Energy on first SCF cycle will be non-variational
 SAD guess density has 20.000000 electrons

 -----------------------------------------------------------------------
  General SCF calculation program by
  Eric Jon Sundstrom, Paul Horn, Yuezhi Mao, Dmitri Zuev, Alec White,
  David Stuck, Shaama M.S., Shane Yost, Joonho Lee, David Small,
  Daniel Levine, Susi Lehtola, Hugh Burton, Evgeny Epifanovsky,
  Bang C. Huynh
 -----------------------------------------------------------------------
 Exchange:     0.2000 Hartree-Fock + 0.0800 Slater + 0.7200 B88
 Correlation:  0.1900 VWN1RPA + 0.8100 LYP
 Using SG-1 standard quadrature grid
 A restricted SCF calculation will be
 performed using DIIS
 SCF converges when DIIS error is below 1.0e-08
 ---------------------------------------
  Cycle       Energy         DIIS error
 ---------------------------------------
    1    -152.8143041987      1.17e-01  
    2    -152.7042530064      3.07e-02  
    3    -152.6476403990      3.77e-02  
    4    -152.8292526860      8.87e-04  
    5    -152.8293265822      5.16e-04  
    6    -152.8293562459      1.75e-04  
    7    -152.8293600934      8.43e-06  
    8    -152.8293601028      8.59e-07  
    9    -152.8293601030      1.20e-07  
   10    -152.8293601030      6.94e-09  Convergence criterion met
 ---------------------------------------
 SCF time:   CPU 1.14s  wall 1.00s 
 SCF   energy in the final basis set =     -152.8293601030
 Total energy in the final basis set =     -152.8293601030
 
 --------------------------------------------------------------
 
                    Orbital Energies (a.u.)
 --------------------------------------------------------------
 
 Alpha MOs
 -- Occupied --
-19.1722 -19.0981  -1.0337  -0.9628  -0.5522  -0.4893  -0.4087  -0.3420
 -0.3197  -0.2582
 -- Virtual --
  0.0402   0.1153   0.1306   0.2490   0.7471   0.8066   0.8385   0.8645
  0.9024   0.9225   0.9391   1.0065   1.0395   1.1307   1.1592   1.4681
  1.6945   1.7086   1.7628   1.7773   1.8123   1.8280   2.2500   2.3968
  2.5569   2.6419   3.5957   3.7485
 --------------------------------------------------------------
 
          Ground-State Mulliken Net Atomic Charges

     Atom                 Charge (a.u.)
  ----------------------------------------
      1 O                    -0.763320
      2 H                     0.407459
      3 H                     0.407498
      4 O                    -0.834650
      5 H                     0.408996
      6 H                     0.374017
  ----------------------------------------
  Sum of atomic charges =     0.000000

 -----------------------------------------------------------------
                    Cartesian Multipole Moments
 -----------------------------------------------------------------
    Charge (ESU x 10^10)
                 0.0000
    Dipole Moment (Debye)
         X       2.9637      Y       0.0125      Z       0.1393
       Tot       2.9670
    Quadrupole Moments (Debye-Ang)
        XX     -10.6070     XY      -0.6359     YY     -11.3838
        XZ      -6.4461     YZ      -0.0730     ZZ     -12.2203
    Octopole Moments (Debye-Ang^2)
       XXX      10.4745    XXY       0.1142    XYY       5.4839
       YYY      -0.2618    XXZ       0.9882    XYZ      -0.6372
       YYZ      -0.6462    XZZ      -0.7861    YZZ       0.1656
       ZZZ       0.4920
    Hexadecapole Moments (Debye-Ang^3)
      XXXX    -157.9769   XXXY      -2.2091   XXYY     -26.3975
      XYYY      -0.6192   YYYY     -10.9834   XXXZ     -23.6914
      XXYZ      -0.1761   XYYZ      -2.2816   YYYZ      -0.0579
      XXZZ     -28.3605   XYZZ       0.0292   YYZZ      -3.8661
      XZZZ      -4.4568   YZZZ      -0.0402   ZZZZ     -12.0366
 -----------------------------------------------------------------
 Calculating analytic gradient of the SCF energy
 Gradient of SCF Energy
            1           2           3           4           5           6
    1   0.0036476  -0.0014459  -0.0013515   0.0040289  -0.0070525   0.0021734
    2  -0.0007082  -0.0051335   0.0057735   0.0008356  -0.0001004  -0.0006670
    3  -0.0076040   0.0039619   0.0028987   0.0080407  -0.0007301  -0.0065671
 Max gradient component =       8.041E-03
 RMS gradient           =       4.343E-03
 Gradient time:  CPU 0.39 s  wall 0.40 s
=======================================================
            AB INITIO MOLECULAR DYNAMICS
=======================================================
 Created directory /scratch/webmo-18596/192201/qchem2610488/AIMD
AIMD will take 1000 BOMD steps Velocity Verlet integration
Time step = 20.00000 a.u. ( = 0.48378 fs)
Total simulation time requested = 483.777 fs
Integral threshold = 10**(-12)
SCF convergence threshold = 10**(-8)
Generating viewable xyz trajectory,
 file (in Angstroms) at AIMD/View.xyz
Choosing nuclear velocities from Maxwell-Boltzmann
Velocities sampled from Maxwell-Boltzmann at T = 298.0 K
sqrt(kT/m) and (vx,vy,vz) for each atom:
  1   1.7991e-04   3.07e-05  -2.33e-05   3.72e-05 
  2   7.1671e-04  -1.29e-03  -3.98e-04  -1.34e-03 
  3   7.1671e-04  -7.29e-04  -5.50e-04   5.21e-04 
  4   1.7991e-04   2.80e-05  -1.75e-04   1.27e-04 
  5   7.1671e-04  -1.23e-03   6.97e-04   1.12e-03 
  6   7.1671e-04  -3.57e-04  -1.01e-03   1.40e-03 
T(nuclear) = 0.01090784 a.u.
v(c.o.m.) = ( -7.4943e-05,  -1.2344e-04,   1.2030e-04)
T(c.o.m.) = 1.15986e-03 a.u.
kT/2 = 0.000472 a.u.
Tx   = 0.003558 a.u.
Ty   = 0.002265 a.u.
Tz   = 0.005085 a.u.
Mean velocities (a.u.):  -5.9188e-04  -2.4375e-04   3.1033e-04
Removing c.o.m. velocity
T(nuclear) = 0.00831931 a.u.
v(c.o.m.) = ( -9.2994e-21,   1.6908e-21,  -3.3816e-21)
T(c.o.m.) = 3.30851e-36 a.u.
kT   = 0.000944 a.u. = 0.59 kcal/mol
Tx   = 0.001400 a.u. = 0.88 kcal/mol
Ty   = 0.002339 a.u. = 1.47 kcal/mol
Tz   = 0.004580 a.u. = 2.87 kcal/mol
Initial velocities in m/s
  1      1.2860e+02      5.0424e+01     -1.7462e+01 
  2     -1.8498e+03      7.3725e+02     -4.4924e+03 
  3     -6.1922e+02      4.0551e+02     -4.2892e+02 
  4      1.2287e+02     -2.8162e+02      1.7854e+02 
  5     -1.7176e+03      3.1325e+03      8.7480e+02 
  6      1.9577e+02     -6.0604e+02      1.4902e+03 
----------------------------------------------------------------------------
       Nuclear coordinates (Angst) and velocities (a.u.)
----------------------------------------------------------------------------
             x        y        z            v_x         v_y        v_z
----------------------------------------------------------------------------
1      O    1.3870   0.0112   0.1091     5.8782e-05   2.3049e-05  -7.9821e-06
2      H    1.7484   0.7210  -0.4310    -8.4556e-04   3.3700e-04  -2.0535e-03
3      H    1.7413  -0.7937  -0.2818    -2.8305e-04   1.8536e-04  -1.9606e-04
4      O   -1.5120  -0.0096  -0.1205     5.6164e-05  -1.2873e-04   8.1609e-05
5      H   -0.5581   0.0082   0.0474    -7.8513e-04   1.4319e-03   3.9987e-04
6      H   -1.9103   0.0778   0.7491     8.9485e-05  -2.7702e-04   6.8117e-04
----------------------------------------------------------------------------
Write nuclear velocities every 1 time steps

TIME STEP #1 (t = 0.000 a.u. = 0.00000 fs)
--------------------------------------
 Instantaneous Temperature = 291.9 K
 ----------------------------------------------------------------
             Standard Nuclear Orientation (Angstroms)
    I     Atom           X                Y                Z
 ----------------------------------------------------------------
    1      O       1.3875858765     0.0114645102     0.1090411228
    2      H       1.7395762231     0.7248323964    -0.4529874171
    3      H       1.7383622270    -0.7920238234    -0.2840530212
    4      O      -1.5113752133    -0.0109944568    -0.1196864719
    5      H      -0.5659981626     0.0233852712     0.0516261484
    6      H      -1.9094861363     0.0748835574     0.7566544701
 ----------------------------------------------------------------
 Nuclear Repulsion Energy =          36.53382635 hartrees
 There are       10 alpha and       10 beta electrons

                       Distance Matrix (Angstroms)
             O (  1)   H (  2)   H (  3)   O (  4)   H (  5)
   H (  2)  0.973995
   H (  3)  0.960812  1.526235
   O (  4)  2.908057  3.349808  3.346314
   H (  5)  1.954464  2.462181  2.467316  0.961388
   H (  6)  3.360671  3.898887  3.891195  0.966354  1.518116
 
 Applying Cartesian multipole field
    Component          Value
    ---------          -----
     (2,0,0)        1.00000E-11
     (0,2,0)        2.00000E-10
     (0,0,2)       -3.00000E-10
 Nucleus-field energy     =     0.0000000012 hartrees
 Guess from superposition of atomic densities
 Warning:  Energy on first SCF cycle will be non-variational
 SAD guess density has 20.000000 electrons
 SCF convergence criterion is 10**(-8)

 -----------------------------------------------------------------------
  General SCF calculation program by
  Eric Jon Sundstrom, Paul Horn, Yuezhi Mao, Dmitri Zuev, Alec White,
  David Stuck, Shaama M.S., Shane Yost, Joonho Lee, David Small,
  Daniel Levine, Susi Lehtola, Hugh Burton, Evgeny Epifanovsky,
  Bang C. Huynh
 -----------------------------------------------------------------------
 Exchange:     0.2000 Hartree-Fock + 0.0800 Slater + 0.7200 B88
 Correlation:  0.1900 VWN1RPA + 0.8100 LYP
 Using SG-1 standard quadrature grid
 A restricted SCF calculation will be
 performed using DIIS
 SCF converges when DIIS error is below 1.0e-08
 ---------------------------------------
  Cycle       Energy         DIIS error
 ---------------------------------------
    1    -152.8093143471      1.17e-01  
    2    -152.7041196924      3.07e-02  
    3    -152.6462402112      3.78e-02  
    4    -152.8291516220      9.40e-04  
    5    -152.8292273129      5.91e-04  
    6    -152.8292678754      1.67e-04  
    7    -152.8292713844      8.55e-06  
    8    -152.8292713941      8.97e-07  
    9    -152.8292713942      1.21e-07  
   10    -152.8292713942      7.21e-09  Convergence criterion met
 ---------------------------------------
 SCF time:   CPU 1.06s  wall 1.00s 
 SCF   energy in the final basis set =     -152.8292713942
 Total energy in the final basis set =     -152.8292713942
 Calculating analytic gradient of the SCF energy
 Gradient of SCF Energy
            1           2           3           4           5           6
    1  -0.0000582   0.0027112  -0.0018009   0.0131684  -0.0146484   0.0006280
    2  -0.0108927   0.0030456   0.0075688   0.0003558   0.0000099  -0.0000873
    3  -0.0016792  -0.0026047   0.0035324   0.0029509  -0.0011769  -0.0010226
 Max gradient component =       1.465E-02
 RMS gradient           =       5.857E-03
 Gradient time:  CPU 0.30 s  wall 0.30 s
 Time for this dynamics step: 1.4 s (CPU) 1.4 s (wall)

TIME STEP #2 (t = 20.000 a.u. = 0.48378 fs)
--------------------------------------
 Instantaneous Temperature = 288.9 K
 ----------------------------------------------------------------
             Standard Nuclear Orientation (Angstroms)
    I     Atom           X                Y                Z
 ----------------------------------------------------------------
    1      O       1.3881951757     0.0117900985     0.1089964357
    2      H       1.7303980667     0.7283438875    -0.4746487358
    3      H       1.7356519524    -0.7912666970    -0.2867020371
    4      O      -1.5108910254    -0.0123624964    -0.1188733666
    5      H      -0.5722135871     0.0385444058     0.0560358996
    6      H      -1.9087366244     0.0720001776     0.7643597626
 ----------------------------------------------------------------
 Nuclear Repulsion Energy =          36.47681631 hartrees
 There are       10 alpha and       10 beta electrons

                       Distance Matrix (Angstroms)
             O (  1)   H (  2)   H (  3)   O (  4)   H (  5)
   H (  2)  0.985492
   H (  3)  0.960314  1.531198
   O (  4)  2.908128  3.343827  3.342888
   H (  5)  1.961306  2.461599  2.476348  0.956190
   H (  6)  3.361976  3.899901  3.889927  0.972368  1.512989
 
 Applying Cartesian multipole field
    Component          Value
    ---------          -----
     (2,0,0)        1.00000E-11
     (0,2,0)        2.00000E-10
     (0,0,2)       -3.00000E-10
 Nucleus-field energy     =     0.0000000012 hartrees
 Guess from superposition of atomic densities
 Warning:  Energy on first SCF cycle will be non-variational
 SAD guess density has 20.000000 electrons
 SCF convergence criterion is 10**(-8)

 -----------------------------------------------------------------------
  General SCF calculation program by
  Eric Jon Sundstrom, Paul Horn, Yuezhi Mao, Dmitri Zuev, Alec White,
  David Stuck, Shaama M.S., Shane Yost, Joonho Lee, David Small,
  Daniel Levine, Susi Lehtola, Hugh Burton, Evgeny Epifanovsky,
  Bang C. Huynh
 -----------------------------------------------------------------------
 Exchange:     0.2000 Hartree-Fock + 0.0800 Slater + 0.7200 B88
 Correlation:  0.1900 VWN1RPA + 0.8100 LYP
 Using SG-1 standard quadrature grid
 A restricted SCF calculation will be
 performed using DIIS
 SCF converges when DIIS error is below 1.0e-08
 ---------------------------------------
  Cycle       Energy         DIIS error
 ---------------------------------------
    1    -152.8026650420      1.16e-01  
    2    -152.7036498408      3.06e-02  
    3    -152.6442708223      3.79e-02  
    4    -152.8287114455      9.93e-04  
    5    -152.8287896281      6.59e-04  
    6    -152.8288412781      1.60e-04  
    7    -152.8288445298      8.71e-06  
    8    -152.8288445399      9.33e-07  
    9    -152.8288445401      1.23e-07  
   10    -152.8288445401      7.51e-09  Convergence criterion met
 ---------------------------------------
 SCF time:   CPU 1.07s  wall 2.00s 
 SCF   energy in the final basis set =     -152.8288445401
 Total energy in the final basis set =     -152.8288445401
 Calculating analytic gradient of the SCF energy
 Gradient of SCF Energy
            1           2           3           4           5           6
    1  -0.0034609   0.0061721  -0.0018604   0.0204476  -0.0204155  -0.0008828
    2  -0.0192647   0.0103484   0.0084361   0.0000572  -0.0000571   0.0004801
    3   0.0043790  -0.0088746   0.0037362  -0.0021950  -0.0014085   0.0043628
 Max gradient component =       2.045E-02
 RMS gradient           =       9.359E-03
 Gradient time:  CPU 0.30 s  wall 0.30 s
 Time for this dynamics step: 1.4 s (CPU) 1.4 s (wall)

TIME STEP #3 (t = 40.000 a.u. = 0.96755 fs)
--------------------------------------
 Instantaneous Temperature = 274.4 K
 ----------------------------------------------------------------
             Standard Nuclear Orientation (Angstroms)
    I     Atom           X                Y                Z
 ----------------------------------------------------------------
    1      O       1.3888296000     0.0122555430     0.1089199581
    2      H       1.7205087871     0.7306630707    -0.4952875609
    3      H       1.7331560273    -0.7914815482    -0.2897815296
    4      O      -1.5105552812    -0.0137309513    -0.1180443260
    5      H      -0.5760768099     0.0537101207     0.0606079369
    6      H      -1.9078853949     0.0690614860     0.7715623843
 ----------------------------------------------------------------
 Nuclear Repulsion Energy =          36.41352270 hartrees
 There are       10 alpha and       10 beta electrons

                       Distance Matrix (Angstroms)
             O (  1)   H (  2)   H (  3)   O (  4)   H (  5)
   H (  2)  0.995584
   H (  3)  0.960998  1.536007
   O (  4)  2.908371  3.337096  3.340068
   H (  5)  1.965937  2.457965  2.483884  0.953790
   H (  6)  3.363131  3.899727  3.888980  0.977817  1.509770
 
 Applying Cartesian multipole field
    Component          Value
    ---------          -----
     (2,0,0)        1.00000E-11
     (0,2,0)        2.00000E-10
     (0,0,2)       -3.00000E-10
 Nucleus-field energy     =     0.0000000012 hartrees
 Guess from superposition of atomic densities
 Warning:  Energy on first SCF cycle will be non-variational
 SAD guess density has 20.000000 electrons
 SCF convergence criterion is 10**(-8)

 -----------------------------------------------------------------------
  General SCF calculation program by
  Eric Jon Sundstrom, Paul Horn, Yuezhi Mao, Dmitri Zuev, Alec White,
  David Stuck, Shaama M.S., Shane Yost, Joonho Lee, David Small,
  Daniel Levine, Susi Lehtola, Hugh Burton, Evgeny Epifanovsky,
  Bang C. Huynh
 -----------------------------------------------------------------------
 Exchange:     0.2000 Hartree-Fock + 0.0800 Slater + 0.7200 B88
 Correlation:  0.1900 VWN1RPA + 0.8100 LYP
 Using SG-1 standard quadrature grid
 A restricted SCF calculation will be
 performed using DIIS
 SCF converges when DIIS error is below 1.0e-08
 ---------------------------------------
  Cycle       Energy         DIIS error
 ---------------------------------------
    1    -152.7950601004      1.15e-01  
    2    -152.7031007050      3.06e-02  
    3    -152.6421495204      3.80e-02  
    4    -152.8281347079      1.04e-03  
    5    -152.8282155956      7.14e-04  
    6    -152.8282770294      1.56e-04  
    7    -152.8282801283      8.87e-06  
    8    -152.8282801389      9.60e-07  
    9    -152.8282801391      1.27e-07  
   10    -152.8282801391      7.78e-09  Convergence criterion met
 ---------------------------------------
 SCF time:   CPU 1.07s  wall 1.00s 
 SCF   energy in the final basis set =     -152.8282801391
 Total energy in the final basis set =     -152.8282801391
 Calculating analytic gradient of the SCF energy
 Gradient of SCF Energy
            1           2           3           4           5           6
    1  -0.0063735   0.0086898  -0.0014701   0.0246355  -0.0233622  -0.0021194
    2  -0.0250423   0.0161045   0.0082604  -0.0001660  -0.0001341   0.0009775
    3   0.0100605  -0.0142430   0.0034167  -0.0070036  -0.0012346   0.0090039
 Max gradient component =       2.504E-02
 RMS gradient           =       1.220E-02
 Gradient time:  CPU 0.30 s  wall 0.30 s
 Time for this dynamics step: 1.4 s (CPU) 1.4 s (wall)

TIME STEP #4 (t = 60.000 a.u. = 1.45133 fs)
--------------------------------------
 Instantaneous Temperature = 255.1 K
 ----------------------------------------------------------------
             Standard Nuclear Orientation (Angstroms)
    I     Atom           X                Y                Z
 ----------------------------------------------------------------
    1      O       1.3895102943     0.0129027875     0.1087704442
    2      H       1.7096183012     0.7311267570    -0.5142853595
    3      H       1.7308294863    -0.7926481347    -0.2932546863
    4      O      -1.5103983833    -0.0150982012    -0.1171644416
    5      H      -0.5772483292     0.0688912888     0.0653222178
    6      H      -1.9067899762     0.0660101674     0.7777276086
 ----------------------------------------------------------------
 Nuclear Repulsion Energy =          36.34950953 hartrees
 There are       10 alpha and       10 beta electrons

                       Distance Matrix (Angstroms)
             O (  1)   H (  2)   H (  3)   O (  4)   H (  5)
   H (  2)  1.003251
   H (  3)  0.962827  1.539868
   O (  4)  2.908832  3.329124  3.337836
   H (  5)  1.968035  2.450359  2.489588  0.954528
   H (  6)  3.363914  3.897446  3.888004  0.982108  1.508380
 
 Applying Cartesian multipole field
    Component          Value
    ---------          -----
     (2,0,0)        1.00000E-11
     (0,2,0)        2.00000E-10
     (0,0,2)       -3.00000E-10
 Nucleus-field energy     =     0.0000000011 hartrees
 Guess from superposition of atomic densities
 Warning:  Energy on first SCF cycle will be non-variational
 SAD guess density has 20.000000 electrons
 SCF convergence criterion is 10**(-8)

 -----------------------------------------------------------------------
  General SCF calculation program by
  Eric Jon Sundstrom, Paul Horn, Yuezhi Mao, Dmitri Zuev, Alec White,
  David Stuck, Shaama M.S., Shane Yost, Joonho Lee, David Small,
  Daniel Levine, Susi Lehtola, Hugh Burton, Evgeny Epifanovsky,
  Bang C. Huynh
 -----------------------------------------------------------------------
 Exchange:     0.2000 Hartree-Fock + 0.0800 Slater + 0.7200 B88
 Correlation:  0.1900 VWN1RPA + 0.8100 LYP
 Using SG-1 standard quadrature grid
 A restricted SCF calculation will be
 performed using DIIS
 SCF converges when DIIS error is below 1.0e-08
 ---------------------------------------
  Cycle       Energy         DIIS error
 ---------------------------------------
    1    -152.7872635845      1.15e-01  
    2    -152.7027537727      3.05e-02  
    3    -152.6403343642      3.81e-02  
    4    -152.8276502984      1.07e-03  
    5    -152.8277334015      7.51e-04  
    6    -152.8278018733      1.55e-04  
    7    -152.8278049232      9.02e-06  
    8    -152.8278049341      9.69e-07  
    9    -152.8278049343      1.31e-07  
   10    -152.8278049343      8.00e-09  Convergence criterion met
 ---------------------------------------
 SCF time:   CPU 1.06s  wall 1.00s 
 SCF   energy in the final basis set =     -152.8278049343
 Total energy in the final basis set =     -152.8278049343
 Calculating analytic gradient of the SCF energy
 Gradient of SCF Energy
            1           2           3           4           5           6
    1  -0.0087227   0.0102074  -0.0006472   0.0250560  -0.0229735  -0.0029201
    2  -0.0279497   0.0199860   0.0070894  -0.0004729  -0.0000204   0.0013676
    3   0.0149957  -0.0183262   0.0025615  -0.0111844  -0.0005357   0.0124890
 Max gradient component =       2.795E-02
 RMS gradient           =       1.380E-02
 Gradient time:  CPU 0.30 s  wall 0.30 s
 Time for this dynamics step: 1.4 s (CPU) 1.4 s (wall)

TIME STEP #5 (t = 80.000 a.u. = 1.93511 fs)
--------------------------------------
 Instantaneous Temperature = 238.8 K
 ----------------------------------------------------------------
             Standard Nuclear Orientation (Angstroms)
    I     Atom           X                Y                Z
 ----------------------------------------------------------------
    1      O       1.3902543127     0.0137529391     0.1085120656
    2      H       1.6975517524     0.7292877275    -0.5311716865
    3      H       1.7285775098    -0.7946315408    -0.2970229651
    4      O      -1.5104233848    -0.0164620179    -0.1162033619
    5      H      -0.5757729304     0.0840748109     0.0700982146
    6      H      -1.9053581096     0.0628012759     0.7824538996
 ----------------------------------------------------------------
 Nuclear Repulsion Energy =          36.29078869 hartrees
 There are       10 alpha and       10 beta electrons

                       Distance Matrix (Angstroms)
             O (  1)   H (  2)   H (  3)   O (  4)   H (  5)
   H (  2)  1.007778
   H (  3)  0.965612  1.542115
   O (  4)  2.909526  3.319555  3.336071
   H (  5)  1.967660  2.438407  2.493378  0.958325
   H (  6)  3.364174  3.892400  3.886637  0.984805  1.508542
 
 Applying Cartesian multipole field
    Component          Value
    ---------          -----
     (2,0,0)        1.00000E-11
     (0,2,0)        2.00000E-10
     (0,0,2)       -3.00000E-10
 Nucleus-field energy     =     0.0000000011 hartrees
 Guess from superposition of atomic densities
 Warning:  Energy on first SCF cycle will be non-variational
 SAD guess density has 20.000000 electrons
 SCF convergence criterion is 10**(-8)

 -----------------------------------------------------------------------
  General SCF calculation program by
  Eric Jon Sundstrom, Paul Horn, Yuezhi Mao, Dmitri Zuev, Alec White,
  David Stuck, Shaama M.S., Shane Yost, Joonho Lee, David Small,
  Daniel Levine, Susi Lehtola, Hugh Burton, Evgeny Epifanovsky,
  Bang C. Huynh
 -----------------------------------------------------------------------
 Exchange:     0.2000 Hartree-Fock + 0.0800 Slater + 0.7200 B88
 Correlation:  0.1900 VWN1RPA + 0.8100 LYP
 Using SG-1 standard quadrature grid
 A restricted SCF calculation will be
 performed using DIIS
 SCF converges when DIIS error is below 1.0e-08
 ---------------------------------------
  Cycle       Energy         DIIS error
 ---------------------------------------
    1    -152.7800557017      1.14e-01  
    2    -152.7027764322      3.04e-02  
    3    -152.6391503872      3.82e-02  
    4    -152.8274071115      1.09e-03  
    5    -152.8274913511      7.67e-04  
    6    -152.8275629669      1.56e-04  
    7    -152.8275660663      9.12e-06  
    8    -152.8275660776      9.59e-07  
    9    -152.8275660777      1.35e-07  
   10    -152.8275660777      8.17e-09  Convergence criterion met
 ---------------------------------------
 SCF time:   CPU 1.06s  wall 1.00s 
 SCF   energy in the final basis set =     -152.8275660777
 Total energy in the final basis set =     -152.8275660777
 Calculating analytic gradient of the SCF energy
 Gradient of SCF Energy
            1           2           3           4           5           6
    1  -0.0104692   0.0107738   0.0005202   0.0217580  -0.0193872  -0.0031956
    2  -0.0280823   0.0218870   0.0051212  -0.0010074   0.0004505   0.0016310
    3   0.0188992  -0.0209060   0.0012404  -0.0144930   0.0006865   0.0145730
 Max gradient component =       2.808E-02
 RMS gradient           =       1.415E-02
 Gradient time:  CPU 0.30 s  wall 0.30 s
 Time for this dynamics step: 1.4 s (CPU) 1.4 s (wall)

TIME STEP #6 (t = 100.000 a.u. = 2.41888 fs)
--------------------------------------
 Instantaneous Temperature = 230.4 K
 ----------------------------------------------------------------
             Standard Nuclear Orientation (Angstroms)
    I     Atom           X                Y                Z
 ----------------------------------------------------------------
    1      O       1.3910743342     0.0148069600     0.1081164846
    2      H       1.6842438848     0.7249269648    -0.5456492979
    3      H       1.7262655969    -0.7972049926    -0.3009341525
    4      O      -1.5106063428    -0.0178185211    -0.1151370674
    5      H      -0.5720638119     0.0992064269     0.0747951138
    6      H      -1.9035580552     0.0594044643     0.7855011448
 ----------------------------------------------------------------
 Nuclear Repulsion Energy =          36.24363373 hartrees
 There are       10 alpha and       10 beta electrons

                       Distance Matrix (Angstroms)
             O (  1)   H (  2)   H (  3)   O (  4)   H (  5)
   H (  2)  1.008776
   H (  3)  0.969040  1.542251
   O (  4)  2.910439  3.308184  3.334562
   H (  5)  1.965234  2.422272  2.495405  0.964692
   H (  6)  3.363843  3.884225  3.884552  0.985659  1.509823
 
 Applying Cartesian multipole field
    Component          Value
    ---------          -----
     (2,0,0)        1.00000E-11
     (0,2,0)        2.00000E-10
     (0,0,2)       -3.00000E-10
 Nucleus-field energy     =     0.0000000011 hartrees
 Guess from superposition of atomic densities
 Warning:  Energy on first SCF cycle will be non-variational
 SAD guess density has 20.000000 electrons
 SCF convergence criterion is 10**(-8)

 -----------------------------------------------------------------------
  General SCF calculation program by
  Eric Jon Sundstrom, Paul Horn, Yuezhi Mao, Dmitri Zuev, Alec White,
  David Stuck, Shaama M.S., Shane Yost, Joonho Lee, David Small,
  Daniel Levine, Susi Lehtola, Hugh Burton, Evgeny Epifanovsky,
  Bang C. Huynh
 -----------------------------------------------------------------------
 Exchange:     0.2000 Hartree-Fock + 0.0800 Slater + 0.7200 B88
 Correlation:  0.1900 VWN1RPA + 0.8100 LYP
 Using SG-1 standard quadrature grid
 A restricted SCF calculation will be
 performed using DIIS
 SCF converges when DIIS error is below 1.0e-08
 ---------------------------------------
  Cycle       Energy         DIIS error
 ---------------------------------------
    1    -152.7741876638      1.13e-01  
    2    -152.7031637803      3.04e-02  
    3    -152.6387006602      3.82e-02  
    4    -152.8274300032      1.08e-03  
    5    -152.8275141560      7.60e-04  
    6    -152.8275843833      1.59e-04  
    7    -152.8275876297      9.19e-06  
    8    -152.8275876412      9.28e-07  
    9    -152.8275876414      1.39e-07  
   10    -152.8275876414      8.27e-09  Convergence criterion met
 ---------------------------------------
 SCF time:   CPU 1.06s  wall 1.00s 
 SCF   energy in the final basis set =     -152.8275876414
 Total energy in the final basis set =     -152.8275876414
 Calculating analytic gradient of the SCF energy
 Gradient of SCF Energy
            1           2           3           4           5           6
    1  -0.0115685   0.0104824   0.0018939   0.0154432  -0.0133375  -0.0029135
    2  -0.0257531   0.0218150   0.0026592  -0.0018367   0.0013531   0.0017625
    3   0.0215163  -0.0218602  -0.0004118  -0.0166961   0.0023035   0.0151483
 Max gradient component =       2.575E-02
 RMS gradient           =       1.350E-02
 Gradient time:  CPU 0.30 s  wall 0.30 s
 Time for this dynamics step: 1.4 s (CPU) 1.4 s (wall)

TIME STEP #7 (t = 120.000 a.u. = 2.90266 fs)
--------------------------------------
 Instantaneous Temperature = 231.0 K
 ----------------------------------------------------------------
             Standard Nuclear Orientation (Angstroms)
    I     Atom           X                Y                Z
 ----------------------------------------------------------------
    1      O       1.3919783399     0.0160479410     0.1075647016
    2      H       1.6697282697     0.7180527576    -0.5576082641
    3      H       1.7237354797    -0.8000848284    -0.3047978954
    4      O      -1.5109014142    -0.0191616903    -0.1139495637
    5      H      -0.5668179912     0.1141821391     0.0792266177
    6      H      -1.9014223211     0.0558045867     0.7868030544
 ----------------------------------------------------------------
 Nuclear Repulsion Energy =          36.21389766 hartrees
 There are       10 alpha and       10 beta electrons

                       Distance Matrix (Angstroms)
             O (  1)   H (  2)   H (  3)   O (  4)   H (  5)
   H (  2)  1.006186
   H (  3)  0.972717  1.539991
   O (  4)  2.911532  3.294954  3.333038
   H (  5)  1.961458  2.402573  2.495996  0.972826
   H (  6)  3.362950  3.872871  3.881483  0.984623  1.511701
 
 Applying Cartesian multipole field
    Component          Value
    ---------          -----
     (2,0,0)        1.00000E-11
     (0,2,0)        2.00000E-10
     (0,0,2)       -3.00000E-10
 Nucleus-field energy     =     0.0000000011 hartrees
 Guess from superposition of atomic densities
 Warning:  Energy on first SCF cycle will be non-variational
 SAD guess density has 20.000000 electrons
 SCF convergence criterion is 10**(-8)

 -----------------------------------------------------------------------
  General SCF calculation program by
  Eric Jon Sundstrom, Paul Horn, Yuezhi Mao, Dmitri Zuev, Alec White,
  David Stuck, Shaama M.S., Shane Yost, Joonho Lee, David Small,
  Daniel Levine, Susi Lehtola, Hugh Burton, Evgeny Epifanovsky,
  Bang C. Huynh
 -----------------------------------------------------------------------
 Exchange:     0.2000 Hartree-Fock + 0.0800 Slater + 0.7200 B88
 Correlation:  0.1900 VWN1RPA + 0.8100 LYP
 Using SG-1 standard quadrature grid
 A restricted SCF calculation will be
 performed using DIIS
 SCF converges when DIIS error is below 1.0e-08
 ---------------------------------------
  Cycle       Energy         DIIS error
 ---------------------------------------
    1    -152.7703193796      1.13e-01  
    2    -152.7037666257      3.03e-02  
    3    -152.6388786215      3.82e-02  
    4    -152.8276399132      1.06e-03  
    5    -152.8277231306      7.30e-04  
    6    -152.8277874973      1.65e-04  
    7    -152.8277909920      9.20e-06  
    8    -152.8277910036      8.75e-07  
    9    -152.8277910037      1.43e-07  
   10    -152.8277910037      8.32e-09  Convergence criterion met
 ---------------------------------------
 SCF time:   CPU 1.05s  wall 1.00s 
 SCF   energy in the final basis set =     -152.8277910037
 Total energy in the final basis set =     -152.8277910037
 Calculating analytic gradient of the SCF energy
 Gradient of SCF Energy
            1           2           3           4           5           6
    1  -0.0119702   0.0094421   0.0033145   0.0071993  -0.0059007  -0.0020850
    2  -0.0213675   0.0198272   0.0000522  -0.0029304   0.0026510   0.0017675
    3   0.0225974  -0.0211068  -0.0022238  -0.0175870   0.0041027   0.0142176
 Max gradient component =       2.260E-02
 RMS gradient           =       1.223E-02
 Gradient time:  CPU 0.30 s  wall 0.30 s
 Time for this dynamics step: 1.4 s (CPU) 1.4 s (wall)

TIME STEP #8 (t = 140.000 a.u. = 3.38644 fs)
--------------------------------------
 Instantaneous Temperature = 237.8 K
 ----------------------------------------------------------------
             Standard Nuclear Orientation (Angstroms)
    I     Atom           X                Y                Z
 ----------------------------------------------------------------
    1      O       1.3929692457     0.0174440441     0.1068488685
    2      H       1.6541247686     0.7088941347    -0.5671353861
    3      H       1.7208234796    -0.8029706820    -0.3084054208
    4      O      -1.5112487506    -0.0204835852    -0.1126343833
    5      H      -0.5608923167     0.1288524077     0.0831854251
    6      H      -1.8990463557     0.0520010632     0.7864668671
 ----------------------------------------------------------------
 Nuclear Repulsion Energy =          36.20603886 hartrees
 There are       10 alpha and       10 beta electrons

                       Distance Matrix (Angstroms)
             O (  1)   H (  2)   H (  3)   O (  4)   H (  5)
   H (  2)  1.000280
   H (  3)  0.976220  1.535293
   O (  4)  2.912747  3.279962  3.331201
   H (  5)  1.957178  2.380266  2.495569  0.981745
   H (  6)  3.361613  3.858597  3.877264  0.981847  1.513660
 
 Applying Cartesian multipole field
    Component          Value
    ---------          -----
     (2,0,0)        1.00000E-11
     (0,2,0)        2.00000E-10
     (0,0,2)       -3.00000E-10
 Nucleus-field energy     =     0.0000000011 hartrees
 Guess from superposition of atomic densities
 Warning:  Energy on first SCF cycle will be non-variational
 SAD guess density has 20.000000 electrons
 SCF convergence criterion is 10**(-8)

 -----------------------------------------------------------------------
  General SCF calculation program by
  Eric Jon Sundstrom, Paul Horn, Yuezhi Mao, Dmitri Zuev, Alec White,
  David Stuck, Shaama M.S., Shane Yost, Joonho Lee, David Small,
  Daniel Levine, Susi Lehtola, Hugh Burton, Evgeny Epifanovsky,
  Bang C. Huynh
 -----------------------------------------------------------------------
 Exchange:     0.2000 Hartree-Fock + 0.0800 Slater + 0.7200 B88
 Correlation:  0.1900 VWN1RPA + 0.8100 LYP
 Using SG-1 standard quadrature grid
 A restricted SCF calculation will be
 performed using DIIS
 SCF converges when DIIS error is below 1.0e-08
 ---------------------------------------
  Cycle       Energy         DIIS error
 ---------------------------------------
    1    -152.7689350567      1.13e-01  
    2    -152.7043648894      3.03e-02  
    3    -152.6394446406      3.82e-02  
    4    -152.8279045449      1.02e-03  
    5    -152.8279866084      6.79e-04  
    6    -152.8280415185      1.73e-04  
    7    -152.8280453648      9.17e-06  
    8    -152.8280453763      8.06e-07  
    9    -152.8280453764      1.46e-07  
   10    -152.8280453764      8.31e-09  Convergence criterion met
 ---------------------------------------
 SCF time:   CPU 1.05s  wall 1.00s 
 SCF   energy in the final basis set =     -152.8280453764
 Total energy in the final basis set =     -152.8280453764
 Calculating analytic gradient of the SCF energy
 Gradient of SCF Energy
            1           2           3           4           5           6
    1  -0.0116404   0.0077731   0.0046281  -0.0018172   0.0018157  -0.0007594
    2  -0.0153528   0.0160162  -0.0023623  -0.0041816   0.0042200   0.0016605
    3   0.0219130  -0.0185919  -0.0040172  -0.0170385   0.0058532   0.0118814
 Max gradient component =       2.191E-02
 RMS gradient           =       1.072E-02
 Gradient time:  CPU 0.29 s  wall 0.29 s
 Time for this dynamics step: 1.4 s (CPU) 1.4 s (wall)

TIME STEP #9 (t = 160.000 a.u. = 3.87021 fs)
--------------------------------------
 Instantaneous Temperature = 246.5 K
 ----------------------------------------------------------------
             Standard Nuclear Orientation (Angstroms)
    I     Atom           X                Y                Z
 ----------------------------------------------------------------
    1      O       1.3940446572     0.0189516044     0.1059739531
    2      H       1.6376256752     0.6978901852    -0.5745204178
    3      H       1.7173782509    -0.8055843631    -0.3115500969
    4      O      -1.5115828948    -0.0217751232    -0.1111955084
    5      H      -0.5551758431     0.1430364643     0.0864698482
    6      H      -1.8965828961     0.0480062244     0.7847617518
 ----------------------------------------------------------------
 Nuclear Repulsion Energy =          36.22216927 hartrees
 There are       10 alpha and       10 beta electrons

                       Distance Matrix (Angstroms)
             O (  1)   H (  2)   H (  3)   O (  4)   H (  5)
   H (  2)  0.991646
   H (  3)  0.979148  1.528381
   O (  4)  2.914017  3.263450  3.328767
   H (  5)  1.953263  2.356512  2.494555  0.990429
   H (  6)  3.360034  3.841956  3.871851  0.977668  1.515261
 
 Applying Cartesian multipole field
    Component          Value
    ---------          -----
     (2,0,0)        1.00000E-11
     (0,2,0)        2.00000E-10
     (0,0,2)       -3.00000E-10
 Nucleus-field energy     =     0.0000000011 hartrees
 Guess from superposition of atomic densities
 Warning:  Energy on first SCF cycle will be non-variational
 SAD guess density has 20.000000 electrons
 SCF convergence criterion is 10**(-8)

 -----------------------------------------------------------------------
  General SCF calculation program by
  Eric Jon Sundstrom, Paul Horn, Yuezhi Mao, Dmitri Zuev, Alec White,
  David Stuck, Shaama M.S., Shane Yost, Joonho Lee, David Small,
  Daniel Levine, Susi Lehtola, Hugh Burton, Evgeny Epifanovsky,
  Bang C. Huynh
 -----------------------------------------------------------------------
 Exchange:     0.2000 Hartree-Fock + 0.0800 Slater + 0.7200 B88
 Correlation:  0.1900 VWN1RPA + 0.8100 LYP
 Using SG-1 standard quadrature grid
 A restricted SCF calculation will be
 performed using DIIS
 SCF converges when DIIS error is below 1.0e-08
 ---------------------------------------
  Cycle       Energy         DIIS error
 ---------------------------------------
    1    -152.7702513457      1.13e-01  
    2    -152.7047430919      3.02e-02  
    3    -152.6401192452      3.81e-02  
    4    -152.8280874098      9.72e-04  
    5    -152.8281685730      6.12e-04  
    6    -152.8282120470      1.83e-04  
    7    -152.8282163319      9.12e-06  
    8    -152.8282163432      7.25e-07  
    9    -152.8282163433      1.48e-07  
   10    -152.8282163433      8.22e-09  Convergence criterion met
 ---------------------------------------
 SCF time:   CPU 1.05s  wall 1.00s 
 SCF   energy in the final basis set =     -152.8282163433
 Total energy in the final basis set =     -152.8282163433
 Calculating analytic gradient of the SCF energy
 Gradient of SCF Energy
            1           2           3           4           5           6
    1  -0.0105966   0.0056230   0.0057046  -0.0106027   0.0088973   0.0009744
    2  -0.0081543   0.0105465  -0.0042984  -0.0054489   0.0058910   0.0014641
    3   0.0193109  -0.0143245  -0.0056282  -0.0150611   0.0073585   0.0083444
 Max gradient component =       1.931E-02
 RMS gradient           =       9.405E-03
 Gradient time:  CPU 0.29 s  wall 0.30 s
 Time for this dynamics step: 1.4 s (CPU) 1.4 s (wall)

TIME STEP #10 (t = 180.000 a.u. = 4.35399 fs)
--------------------------------------
 Instantaneous Temperature = 252.2 K
 ----------------------------------------------------------------
             Standard Nuclear Orientation (Angstroms)
    I     Atom           X                Y                Z
 ----------------------------------------------------------------
    1      O       1.3951969971     0.0205183625     0.1049588464
    2      H       1.6204787228     0.6856711094    -0.5802550396
    3      H       1.7132757568    -0.8077028041    -0.3140463179
    4      O      -1.5118400667    -0.0230271036    -0.1096472944
    5      H      -0.5504844827     0.1565417824     0.0889064571
    6      H      -1.8942317006     0.0438426986     0.7820952317
 ----------------------------------------------------------------
 Nuclear Repulsion Energy =          36.26137834 hartrees
 There are       10 alpha and       10 beta electrons

                       Distance Matrix (Angstroms)
             O (  1)   H (  2)   H (  3)   O (  4)   H (  5)
   H (  2)  0.981172
   H (  3)  0.981168  1.519751
   O (  4)  2.915273  3.245789  3.325487
   H (  5)  1.950496  2.332560  2.493341  0.997934
   H (  6)  3.358482  3.823759  3.865329  0.972574  1.516202
 
 Applying Cartesian multipole field
    Component          Value
    ---------          -----
     (2,0,0)        1.00000E-11
     (0,2,0)        2.00000E-10
     (0,0,2)       -3.00000E-10
 Nucleus-field energy     =     0.0000000010 hartrees
 Guess from superposition of atomic densities
 Warning:  Energy on first SCF cycle will be non-variational
 SAD guess density has 20.000000 electrons
 SCF convergence criterion is 10**(-8)

 -----------------------------------------------------------------------
  General SCF calculation program by
  Eric Jon Sundstrom, Paul Horn, Yuezhi Mao, Dmitri Zuev, Alec White,
  David Stuck, Shaama M.S., Shane Yost, Joonho Lee, David Small,
  Daniel Levine, Susi Lehtola, Hugh Burton, Evgeny Epifanovsky,
  Bang C. Huynh
 -----------------------------------------------------------------------
 Exchange:     0.2000 Hartree-Fock + 0.0800 Slater + 0.7200 B88
 Correlation:  0.1900 VWN1RPA + 0.8100 LYP
 Using SG-1 standard quadrature grid
 A restricted SCF calculation will be
 performed using DIIS
 SCF converges when DIIS error is below 1.0e-08
 ---------------------------------------
  Cycle       Energy         DIIS error
 ---------------------------------------
    1    -152.7741479651      1.13e-01  
    2    -152.7047504824      3.03e-02  
    3    -152.6406663250      3.81e-02  
    4    -152.8280860446      9.25e-04  
    5    -152.8281666285      5.37e-04  
    6    -152.8281986845      1.93e-04  
    7    -152.8282034313      9.05e-06  
    8    -152.8282034424      6.42e-07  
    9    -152.8282034424      1.48e-07  
   10    -152.8282034424      8.05e-09  Convergence criterion met
 ---------------------------------------
 SCF time:   CPU 1.05s  wall 1.00s 
 SCF   energy in the final basis set =     -152.8282034424
 Total energy in the final basis set =     -152.8282034424
 Calculating analytic gradient of the SCF energy
 Gradient of SCF Energy
            1           2           3           4           5           6
    1  -0.0089437   0.0031924   0.0064480  -0.0183840   0.0147079   0.0029794
    2  -0.0002947   0.0037336  -0.0055422  -0.0065957   0.0074898   0.0012091
    3   0.0148106  -0.0084599  -0.0069193  -0.0118430   0.0084796   0.0039321
 Max gradient component =       1.838E-02
 RMS gradient           =       8.842E-03
 Gradient time:  CPU 0.30 s  wall 0.30 s
 Time for this dynamics step: 1.4 s (CPU) 1.4 s (wall)

TIME STEP #11 (t = 200.000 a.u. = 4.83777 fs)
--------------------------------------
 Instantaneous Temperature = 251.7 K
 ----------------------------------------------------------------
             Standard Nuclear Orientation (Angstroms)
    I     Atom           X                Y                Z
 ----------------------------------------------------------------
    1      O       1.3964142657     0.0220872597     0.1038362193
    2      H       1.6029639526     0.6730218579    -0.5850149449
    3      H       1.7084303507    -0.8091826961    -0.3157453194
    4      O      -1.5119637760    -0.0242312009    -0.1080131035
    5      H      -0.5474877164     0.1691841546     0.0903660793
    6      H      -1.8922237795     0.0395398603     0.7789756696
 ----------------------------------------------------------------
 Nuclear Repulsion Energy =          36.31949671 hartrees
 There are       10 alpha and       10 beta electrons

                       Distance Matrix (Angstroms)
             O (  1)   H (  2)   H (  3)   O (  4)   H (  5)
   H (  2)  0.969997
   H (  3)  0.982045  1.510152
   O (  4)  2.916451  3.227455  3.321180
   H (  5)  1.949506  2.309639  2.492247  1.003483
   H (  6)  3.357269  3.805011  3.857908  0.967168  1.516346
 
 Applying Cartesian multipole field
    Component          Value
    ---------          -----
     (2,0,0)        1.00000E-11
     (0,2,0)        2.00000E-10
     (0,0,2)       -3.00000E-10
 Nucleus-field energy     =     0.0000000010 hartrees
 Guess from superposition of atomic densities
 Warning:  Energy on first SCF cycle will be non-variational
 SAD guess density has 20.000000 electrons
 SCF convergence criterion is 10**(-8)

 -----------------------------------------------------------------------
  General SCF calculation program by
  Eric Jon Sundstrom, Paul Horn, Yuezhi Mao, Dmitri Zuev, Alec White,
  David Stuck, Shaama M.S., Shane Yost, Joonho Lee, David Small,
  Daniel Levine, Susi Lehtola, Hugh Burton, Evgeny Epifanovsky,
  Bang C. Huynh
 -----------------------------------------------------------------------
 Exchange:     0.2000 Hartree-Fock + 0.0800 Slater + 0.7200 B88
 Correlation:  0.1900 VWN1RPA + 0.8100 LYP
 Using SG-1 standard quadrature grid
 A restricted SCF calculation will be
 performed using DIIS
 SCF converges when DIIS error is below 1.0e-08
 ---------------------------------------
  Cycle       Energy         DIIS error
 ---------------------------------------
    1    -152.7801523877      1.14e-01  
    2    -152.7043472215      3.03e-02  
    3    -152.6409582573      3.81e-02  
    4    -152.8278650396      8.84e-04  
    5    -152.8279451251      4.65e-04  
    6    -152.8279675845      2.00e-04  
    7    -152.8279726916      8.99e-06  
    8    -152.8279727025      5.68e-07  
    9    -152.8279727026      1.47e-07  
   10    -152.8279727026      7.81e-09  Convergence criterion met
 ---------------------------------------
 SCF time:   CPU 1.05s  wall 1.00s 
 SCF   energy in the final basis set =     -152.8279727026
 Total energy in the final basis set =     -152.8279727026
 Calculating analytic gradient of the SCF energy
 Gradient of SCF Energy
            1           2           3           4           5           6
    1  -0.0068909   0.0007499   0.0067990  -0.0245873   0.0188647   0.0050646
    2   0.0075387  -0.0038637  -0.0059577  -0.0075118   0.0088611   0.0009334
    3   0.0087225  -0.0014149  -0.0077847  -0.0077609   0.0091344  -0.0008963
 Max gradient component =       2.459E-02
 RMS gradient           =       9.447E-03
 Gradient time:  CPU 0.30 s  wall 0.30 s
 Time for this dynamics step: 1.4 s (CPU) 1.4 s (wall)

TIME STEP #12 (t = 220.000 a.u. = 5.32155 fs)
--------------------------------------
 Instantaneous Temperature = 243.7 K
 ----------------------------------------------------------------
             Standard Nuclear Orientation (Angstroms)
    I     Atom           X                Y                Z
 ----------------------------------------------------------------
    1      O       1.3976815603     0.0236014280     0.1026502696
    2      H       1.5853627860     0.6608177731    -0.5896118254
    3      H       1.7028015858    -0.8099761641    -0.3165474018
    4      O      -1.5119089883    -0.0253807649    -0.1063225705
    5      H      -0.5466644751     0.1808055865     0.0907732712
    6      H      -1.8907993853     0.0351294751     0.7759593793
 ----------------------------------------------------------------
 Nuclear Repulsion Energy =          36.38942322 hartrees
 There are       10 alpha and       10 beta electrons

                       Distance Matrix (Angstroms)
             O (  1)   H (  2)   H (  3)   O (  4)   H (  5)
   H (  2)  0.959425
   H (  3)  0.981670  1.500530
   O (  4)  2.917497  3.208976  3.315743
   H (  5)  1.950727  2.288859  2.491517  1.006507
   H (  6)  3.356722  3.786816  3.849902  0.962102  1.515718
 
 Applying Cartesian multipole field
    Component          Value
    ---------          -----
     (2,0,0)        1.00000E-11
     (0,2,0)        2.00000E-10
     (0,0,2)       -3.00000E-10
 Nucleus-field energy     =     0.0000000010 hartrees
 Skip SCF guess (diagonalize extrapolated Fock matrix instead)
 SCF convergence criterion is 10**(-8)

 -----------------------------------------------------------------------
  General SCF calculation program by
  Eric Jon Sundstrom, Paul Horn, Yuezhi Mao, Dmitri Zuev, Alec White,
  David Stuck, Shaama M.S., Shane Yost, Joonho Lee, David Small,
  Daniel Levine, Susi Lehtola, Hugh Burton, Evgeny Epifanovsky,
  Bang C. Huynh
 -----------------------------------------------------------------------
 Exchange:     0.2000 Hartree-Fock + 0.0800 Slater + 0.7200 B88
 Correlation:  0.1900 VWN1RPA + 0.8100 LYP
 Using SG-1 standard quadrature grid
 A restricted SCF calculation will be
 performed using DIIS
 SCF converges when DIIS error is below 1.0e-08
 ---------------------------------------
  Cycle       Energy         DIIS error
 ---------------------------------------
    1    -152.8327424099      1.21e-03  
    2    -152.8275754625      2.08e-04  
    3    -152.8275792959      1.55e-04  
    4    -152.8275820487      5.95e-05  
    5    -152.8275825022      3.27e-06  
    6    -152.8275825032      3.27e-06  
    7    -152.8275825045      4.02e-07  
    8    -152.8275825046      4.06e-08  
    9    -152.8275825046      2.64e-09  Convergence criterion met
 ---------------------------------------
 SCF time:   CPU 0.96s  wall 1.00s 
 SCF   energy in the final basis set =     -152.8275825046
 Total energy in the final basis set =     -152.8275825046
 Calculating analytic gradient of the SCF energy
 Gradient of SCF Energy
            1           2           3           4           5           6
    1  -0.0047271  -0.0013933   0.0067360  -0.0287675   0.0211631   0.0069888
    2   0.0144511  -0.0114037  -0.0054856  -0.0081162   0.0098763   0.0006781
    3   0.0017426   0.0060389  -0.0081508  -0.0033522   0.0092842  -0.0055628
 Max gradient component =       2.877E-02
 RMS gradient           =       1.096E-02
 Gradient time:  CPU 0.29 s  wall 0.30 s
 Time for this dynamics step: 1.3 s (CPU) 1.3 s (wall)

TIME STEP #13 (t = 240.000 a.u. = 5.80532 fs)
--------------------------------------
 Instantaneous Temperature = 230.4 K
 ----------------------------------------------------------------
             Standard Nuclear Orientation (Angstroms)
    I     Atom           X                Y                Z
 ----------------------------------------------------------------
    1      O       1.3989831721     0.0250106856     0.1014516694
    2      H       1.5679221495     0.6499275787    -0.5949044875
    3      H       1.6963967267    -0.8101376053    -0.3164103825
    4      O      -1.5116453570    -0.0264714075    -0.1046077018
    5      H      -0.5482795675     0.1912891139     0.0901107722
    6      H      -1.8901802119     0.0306409612     0.7735840084
 ----------------------------------------------------------------
 Nuclear Repulsion Energy =          36.46210112 hartrees
 There are       10 alpha and       10 beta electrons

                       Distance Matrix (Angstroms)
             O (  1)   H (  2)   H (  3)   O (  4)   H (  5)
   H (  2)  0.950775
   H (  3)  0.980069  1.491930
   O (  4)  2.918368  3.190869  3.309158
   H (  5)  1.954382  2.271102  2.491322  1.006682
   H (  6)  3.357140  3.770245  3.841683  0.958004  1.514477
 
 Applying Cartesian multipole field
    Component          Value
    ---------          -----
     (2,0,0)        1.00000E-11
     (0,2,0)        2.00000E-10
     (0,0,2)       -3.00000E-10
 Nucleus-field energy     =     0.0000000010 hartrees
 Extrapolating the Fock matrix using 12 points and a 6th-order polynomial
 Skip SCF guess (diagonalize extrapolated Fock matrix instead)
 SCF convergence criterion is 10**(-8)

 -----------------------------------------------------------------------
  General SCF calculation program by
  Eric Jon Sundstrom, Paul Horn, Yuezhi Mao, Dmitri Zuev, Alec White,
  David Stuck, Shaama M.S., Shane Yost, Joonho Lee, David Small,
  Daniel Levine, Susi Lehtola, Hugh Burton, Evgeny Epifanovsky,
  Bang C. Huynh
 -----------------------------------------------------------------------
 Exchange:     0.2000 Hartree-Fock + 0.0800 Slater + 0.7200 B88
 Correlation:  0.1900 VWN1RPA + 0.8100 LYP
 Using SG-1 standard quadrature grid
 A restricted SCF calculation will be
 performed using DIIS
 SCF converges when DIIS error is below 1.0e-08
 ---------------------------------------
  Cycle       Energy         DIIS error
 ---------------------------------------
    1    -152.8326106524      1.02e-03  
    2    -152.8271774871      1.78e-04  
    3    -152.8271794255      1.55e-04  
    4    -152.8271822695      4.74e-05  
    5    -152.8271825579      3.46e-06  
    6    -152.8271825587      3.42e-06  
    7    -152.8271825602      3.20e-07  
    8    -152.8271825602      3.88e-08  
    9    -152.8271825602      1.73e-09  Convergence criterion met
 ---------------------------------------
 SCF time:   CPU 0.96s  wall 0.00s 
 SCF   energy in the final basis set =     -152.8271825602
 Total energy in the final basis set =     -152.8271825602
 Calculating analytic gradient of the SCF energy
 Gradient of SCF Energy
            1           2           3           4           5           6
    1  -0.0027583  -0.0029446   0.0062744  -0.0305572   0.0215027   0.0084830
    2   0.0193986  -0.0178200  -0.0041430  -0.0083472   0.0104309   0.0004807
    3  -0.0050538   0.0127847  -0.0079801   0.0007613   0.0089189  -0.0094310
 Max gradient component =       3.056E-02
 RMS gradient           =       1.255E-02
 Gradient time:  CPU 0.29 s  wall 0.30 s
 Time for this dynamics step: 1.3 s (CPU) 1.3 s (wall)

TIME STEP #14 (t = 260.000 a.u. = 6.28910 fs)
--------------------------------------
 Instantaneous Temperature = 216.8 K
 ----------------------------------------------------------------
             Standard Nuclear Orientation (Angstroms)
    I     Atom           X                Y                Z
 ----------------------------------------------------------------
    1      O       1.4003048087     0.0262791152     0.1002897579
    2      H       1.5508207772     0.6410905371    -0.6016701601
    3      H       1.6892689604    -0.8098217066    -0.3153539239
    4      O      -1.5111598893    -0.0275014522    -0.1028983599
    5      H      -0.5523721236     0.2005708336     0.0884206760
    6      H      -1.8905384238     0.0260970604     0.7722952449
 ----------------------------------------------------------------
 Nuclear Repulsion Energy =          36.52809909 hartrees
 There are       10 alpha and       10 beta electrons

                       Distance Matrix (Angstroms)
             O (  1)   H (  2)   H (  3)   O (  4)   H (  5)
   H (  2)  0.945196
   H (  3)  0.977407  1.485359
   O (  4)  2.919042  3.173565  3.301501
   H (  5)  1.960476  2.256923  2.491763  1.003939
   H (  6)  3.358756  3.756188  3.833636  0.955387  1.512883
 
 Applying Cartesian multipole field
    Component          Value
    ---------          -----
     (2,0,0)        1.00000E-11
     (0,2,0)        2.00000E-10
     (0,0,2)       -3.00000E-10
 Nucleus-field energy     =     0.0000000010 hartrees
 Extrapolating the Fock matrix using 12 points and a 6th-order polynomial
 Skip SCF guess (diagonalize extrapolated Fock matrix instead)
 SCF convergence criterion is 10**(-8)

 -----------------------------------------------------------------------
  General SCF calculation program by
  Eric Jon Sundstrom, Paul Horn, Yuezhi Mao, Dmitri Zuev, Alec White,
  David Stuck, Shaama M.S., Shane Yost, Joonho Lee, David Small,
  Daniel Levine, Susi Lehtola, Hugh Burton, Evgeny Epifanovsky,
  Bang C. Huynh
 -----------------------------------------------------------------------
 Exchange:     0.2000 Hartree-Fock + 0.0800 Slater + 0.7200 B88
 Correlation:  0.1900 VWN1RPA + 0.8100 LYP
 Using SG-1 standard quadrature grid
 A restricted SCF calculation will be
 performed using DIIS
 SCF converges when DIIS error is below 1.0e-08
 ---------------------------------------
  Cycle       Energy         DIIS error
 ---------------------------------------
    1    -152.8319108549      8.17e-04  
    2    -152.8269583641      1.46e-04  
    3    -152.8269591582      1.43e-04  
    4    -152.8269616449      3.33e-05  
    5    -152.8269617872      3.44e-06  
    6    -152.8269617879      3.27e-06  
    7    -152.8269617893      1.70e-07  
    8    -152.8269617893      3.78e-08  
    9    -152.8269617893      1.46e-09  Convergence criterion met
 ---------------------------------------
 SCF time:   CPU 0.96s  wall 1.00s 
 SCF   energy in the final basis set =     -152.8269617893
 Total energy in the final basis set =     -152.8269617893
 Calculating analytic gradient of the SCF energy
 Gradient of SCF Energy
            1           2           3           4           5           6
    1  -0.0012289  -0.0037105   0.0054676  -0.0296662   0.0198430   0.0092950
    2   0.0213838  -0.0220150  -0.0020279  -0.0081482   0.0104411   0.0003662
    3  -0.0103947   0.0175503  -0.0072775   0.0039938   0.0080464  -0.0119182
 Max gradient component =       2.967E-02
 RMS gradient           =       1.337E-02
 Gradient time:  CPU 0.30 s  wall 0.30 s
 Time for this dynamics step: 1.3 s (CPU) 1.3 s (wall)

TIME STEP #15 (t = 280.000 a.u. = 6.77288 fs)
--------------------------------------
 Instantaneous Temperature = 209.4 K
 ----------------------------------------------------------------
             Standard Nuclear Orientation (Angstroms)
    I     Atom           X                Y                Z
 ----------------------------------------------------------------
    1      O       1.4016353671     0.0273923048     0.0992033090
    2      H       1.5341469112     0.6347899861    -0.6104579153
    3      H       1.6815112380    -0.8092721602    -0.3134589767
    4      O      -1.5104590535    -0.0284723432    -0.1012180115
    5      H      -0.5587509205     0.2086495635     0.0858035091
    6      H      -1.8919675704     0.0215109655     0.7723796544
 ----------------------------------------------------------------
 Nuclear Repulsion Energy =          36.57947714 hartrees
 There are       10 alpha and       10 beta electrons

                       Distance Matrix (Angstroms)
             O (  1)   H (  2)   H (  3)   O (  4)   H (  5)
   H (  2)  0.943457
   H (  3)  0.973975  1.481634
   O (  4)  2.919518  3.157351  3.292927
   H (  5)  1.968794  2.246463  2.492860  0.998475
   H (  6)  3.361699  3.745212  3.826094  0.954578  1.511249
 
 Applying Cartesian multipole field
    Component          Value
    ---------          -----
     (2,0,0)        1.00000E-11
     (0,2,0)        2.00000E-10
     (0,0,2)       -3.00000E-10
 Nucleus-field energy     =     0.0000000010 hartrees
 Extrapolating the Fock matrix using 12 points and a 6th-order polynomial
 Skip SCF guess (diagonalize extrapolated Fock matrix instead)
 SCF convergence criterion is 10**(-8)

 -----------------------------------------------------------------------
  General SCF calculation program by
  Eric Jon Sundstrom, Paul Horn, Yuezhi Mao, Dmitri Zuev, Alec White,
  David Stuck, Shaama M.S., Shane Yost, Joonho Lee, David Small,
  Daniel Levine, Susi Lehtola, Hugh Burton, Evgeny Epifanovsky,
  Bang C. Huynh
 -----------------------------------------------------------------------
 Exchange:     0.2000 Hartree-Fock + 0.0800 Slater + 0.7200 B88
 Correlation:  0.1900 VWN1RPA + 0.8100 LYP
 Using SG-1 standard quadrature grid
 A restricted SCF calculation will be
 performed using DIIS
 SCF converges when DIIS error is below 1.0e-08
 ---------------------------------------
  Cycle       Energy         DIIS error
 ---------------------------------------
    1    -152.8308843859      7.68e-04  
    2    -152.8270455695      1.34e-04  
    3    -152.8270465809      1.22e-04  
    4    -152.8270483796      3.34e-05  
    5    -152.8270485221      3.26e-06  
    6    -152.8270485230      2.73e-06  
    7    -152.8270485240      2.09e-07  
    8    -152.8270485240      4.12e-08  
    9    -152.8270485240      1.69e-09  Convergence criterion met
 ---------------------------------------
 SCF time:   CPU 0.97s  wall 1.00s 
 SCF   energy in the final basis set =     -152.8270485240
 Total energy in the final basis set =     -152.8270485240
 Calculating analytic gradient of the SCF energy
 Gradient of SCF Energy
            1           2           3           4           5           6
    1  -0.0002407  -0.0036771   0.0044069  -0.0259326   0.0161989   0.0092446
    2   0.0197891  -0.0231861   0.0006740  -0.0074619   0.0098458   0.0003390
    3  -0.0131754   0.0192818  -0.0060994   0.0059322   0.0066904  -0.0126295
 Max gradient component =       2.593E-02
 RMS gradient           =       1.282E-02
 Gradient time:  CPU 0.30 s  wall 0.30 s
 Time for this dynamics step: 1.3 s (CPU) 1.3 s (wall)

TIME STEP #16 (t = 300.000 a.u. = 7.25665 fs)
--------------------------------------
 Instantaneous Temperature = 212.4 K
 ----------------------------------------------------------------
             Standard Nuclear Orientation (Angstroms)
    I     Atom           X                Y                Z
 ----------------------------------------------------------------
    1      O       1.4029676729     0.0283618311     0.0982125096
    2      H       1.5178967085     0.6311608451    -0.6214672418
    3      H       1.6732457681    -0.8088002747    -0.3108612769
    4      O      -1.5095699543    -0.0293890630    -0.0995807291
    5      H      -0.5669960995     0.2155938965     0.0824155049
    6      H      -1.8944618455     0.0168858157     0.7739191833
 ----------------------------------------------------------------
 Nuclear Repulsion Energy =          36.61130911 hartrees
 There are       10 alpha and       10 beta electrons

                       Distance Matrix (Angstroms)
             O (  1)   H (  2)   H (  3)   O (  4)   H (  5)
   H (  2)  0.945788
   H (  3)  0.970171  1.481249
   O (  4)  2.919817  3.142331  3.283662
   H (  5)  1.978904  2.239403  2.494541  0.990750
   H (  6)  3.365970  3.737463  3.819299  0.955660  1.509910
 
 Applying Cartesian multipole field
    Component          Value
    ---------          -----
     (2,0,0)        1.00000E-11
     (0,2,0)        2.00000E-10
     (0,0,2)       -3.00000E-10
 Nucleus-field energy     =     0.0000000010 hartrees
 Extrapolating the Fock matrix using 12 points and a 6th-order polynomial
 Skip SCF guess (diagonalize extrapolated Fock matrix instead)
 SCF convergence criterion is 10**(-8)

 -----------------------------------------------------------------------
  General SCF calculation program by
  Eric Jon Sundstrom, Paul Horn, Yuezhi Mao, Dmitri Zuev, Alec White,
  David Stuck, Shaama M.S., Shane Yost, Joonho Lee, David Small,
  Daniel Levine, Susi Lehtola, Hugh Burton, Evgeny Epifanovsky,
  Bang C. Huynh
 -----------------------------------------------------------------------
 Exchange:     0.2000 Hartree-Fock + 0.0800 Slater + 0.7200 B88
 Correlation:  0.1900 VWN1RPA + 0.8100 LYP
 Using SG-1 standard quadrature grid
 A restricted SCF calculation will be
 performed using DIIS
 SCF converges when DIIS error is below 1.0e-08
 ---------------------------------------
  Cycle       Energy         DIIS error
 ---------------------------------------
    1    -152.8297337697      9.56e-04  
    2    -152.8274127973      1.55e-04  
    3    -152.8274154129      1.00e-04  
    4    -152.8274165540      4.28e-05  
    5    -152.8274167847      3.93e-06  
    6    -152.8274167869      1.95e-06  
    7    -152.8274167874      3.02e-07  
    8    -152.8274167874      4.54e-08  
    9    -152.8274167874      2.66e-09  Convergence criterion met
 ---------------------------------------
 SCF time:   CPU 0.97s  wall 1.00s 
 SCF   energy in the final basis set =     -152.8274167874
 Total energy in the final basis set =     -152.8274167874
 Calculating analytic gradient of the SCF energy
 Gradient of SCF Energy
            1           2           3           4           5           6
    1   0.0002762  -0.0030370   0.0032176  -0.0194085   0.0106789   0.0082728
    2   0.0146872  -0.0211318   0.0036855  -0.0062392   0.0086180   0.0003803
    3  -0.0128475   0.0175419  -0.0045618   0.0064366   0.0048961  -0.0114654
 Max gradient component =       2.113E-02
 RMS gradient           =       1.069E-02
 Gradient time:  CPU 0.30 s  wall 0.34 s
 Time for this dynamics step: 1.3 s (CPU) 1.4 s (wall)

TIME STEP #17 (t = 320.000 a.u. = 7.74043 fs)
--------------------------------------
 Instantaneous Temperature = 224.8 K
 ----------------------------------------------------------------
             Standard Nuclear Orientation (Angstroms)
    I     Atom           X                Y                Z
 ----------------------------------------------------------------
    1      O       1.4042979740     0.0292247324     0.0973149790
    2      H       1.5019964184     0.6299664331    -0.6344976805
    3      H       1.6646095811    -0.8087530206    -0.3077379869
    4      O      -1.5085399551    -0.0302604879    -0.0979901746
    5      H      -0.5764716642     0.2215452906     0.0784633922
    6      H      -1.8979092861     0.0122168536     0.7767797091
 ----------------------------------------------------------------
 Nuclear Repulsion Energy =          36.62222687 hartrees
 There are       10 alpha and       10 beta electrons

                       Distance Matrix (Angstroms)
             O (  1)   H (  2)   H (  3)   O (  4)   H (  5)
   H (  2)  0.951833
   H (  3)  0.966456  1.484294
   O (  4)  2.919984  3.128429  3.273977
   H (  5)  1.990174  2.234983  2.496620  0.981475
   H (  6)  3.371429  3.732650  3.813360  0.958455  1.509192
 
 Applying Cartesian multipole field
    Component          Value
    ---------          -----
     (2,0,0)        1.00000E-11
     (0,2,0)        2.00000E-10
     (0,0,2)       -3.00000E-10
 Nucleus-field energy     =     0.0000000010 hartrees
 Extrapolating the Fock matrix using 12 points and a 6th-order polynomial
 Skip SCF guess (diagonalize extrapolated Fock matrix instead)
 SCF convergence criterion is 10**(-8)

 -----------------------------------------------------------------------
  General SCF calculation program by
  Eric Jon Sundstrom, Paul Horn, Yuezhi Mao, Dmitri Zuev, Alec White,
  David Stuck, Shaama M.S., Shane Yost, Joonho Lee, David Small,
  Daniel Levine, Susi Lehtola, Hugh Burton, Evgeny Epifanovsky,
  Bang C. Huynh
 -----------------------------------------------------------------------
 Exchange:     0.2000 Hartree-Fock + 0.0800 Slater + 0.7200 B88
 Correlation:  0.1900 VWN1RPA + 0.8100 LYP
 Using SG-1 standard quadrature grid
 A restricted SCF calculation will be
 performed using DIIS
 SCF converges when DIIS error is below 1.0e-08
 ---------------------------------------
  Cycle       Energy         DIIS error
 ---------------------------------------
    1    -152.8285392692      1.23e-03  
    2    -152.8278688485      1.92e-04  
    3    -152.8278736618      9.00e-05  
    4    -152.8278747454      3.09e-05  
    5    -152.8278748610      6.62e-06  
    6    -152.8278748671      1.13e-06  
    7    -152.8278748672      4.44e-07  
    8    -152.8278748673      5.62e-08  
    9    -152.8278748673      3.04e-09  Convergence criterion met
 ---------------------------------------
 SCF time:   CPU 0.95s  wall 1.00s 
 SCF   energy in the final basis set =     -152.8278748673
 Total energy in the final basis set =     -152.8278748673
 Calculating analytic gradient of the SCF energy
 Gradient of SCF Energy
            1           2           3           4           5           6
    1   0.0005048  -0.0021210   0.0020485  -0.0104555   0.0035613   0.0064620
    2   0.0069170  -0.0163372   0.0066464  -0.0044688   0.0067893   0.0004533
    3  -0.0095974   0.0126894  -0.0028395   0.0056576   0.0027431  -0.0086531
 Max gradient component =       1.634E-02
 RMS gradient           =       7.354E-03
 Gradient time:  CPU 0.30 s  wall 0.30 s
 Time for this dynamics step: 1.3 s (CPU) 1.3 s (wall)

TIME STEP #18 (t = 340.000 a.u. = 8.22421 fs)
--------------------------------------
 Instantaneous Temperature = 240.3 K
 ----------------------------------------------------------------
             Standard Nuclear Orientation (Angstroms)
    I     Atom           X                Y                Z
 ----------------------------------------------------------------
    1      O       1.4056246105     0.0300374183     0.0964871227
    2      H       1.4863405003     0.6306543372    -0.6489901412
    3      H       1.6557373762    -0.8094715417    -0.3042875355
    4      O      -1.5074340518    -0.0310994705    -0.0964406923
    5      H      -0.5863575442     0.2267144454     0.0741952274
    6      H      -1.9021012543     0.0074956621     0.7806372152
 ----------------------------------------------------------------
 Nuclear Repulsion Energy =          36.61381763 hartrees
 There are       10 alpha and       10 beta electrons

                       Distance Matrix (Angstroms)
             O (  1)   H (  2)   H (  3)   O (  4)   H (  5)
   H (  2)  0.960725
   H (  3)  0.963303  1.490462
   O (  4)  2.920080  3.115432  3.264156
   H (  5)  2.001792  2.232094  2.498784  0.971579
   H (  6)  3.377813  3.730107  3.808243  0.962558  1.509403
 
 Applying Cartesian multipole field
    Component          Value
    ---------          -----
     (2,0,0)        1.00000E-11
     (0,2,0)        2.00000E-10
     (0,0,2)       -3.00000E-10
 Nucleus-field energy     =     0.0000000010 hartrees
 Extrapolating the Fock matrix using 12 points and a 6th-order polynomial
 Skip SCF guess (diagonalize extrapolated Fock matrix instead)
 SCF convergence criterion is 10**(-8)

 -----------------------------------------------------------------------
  General SCF calculation program by
  Eric Jon Sundstrom, Paul Horn, Yuezhi Mao, Dmitri Zuev, Alec White,
  David Stuck, Shaama M.S., Shane Yost, Joonho Lee, David Small,
  Daniel Levine, Susi Lehtola, Hugh Burton, Evgeny Epifanovsky,
  Bang C. Huynh
 -----------------------------------------------------------------------
 Exchange:     0.2000 Hartree-Fock + 0.0800 Slater + 0.7200 B88
 Correlation:  0.1900 VWN1RPA + 0.8100 LYP
 Using SG-1 standard quadrature grid
 A restricted SCF calculation will be
 performed using DIIS
 SCF converges when DIIS error is below 1.0e-08
 ---------------------------------------
  Cycle       Energy         DIIS error
 ---------------------------------------
    1    -152.8272718079      1.43e-03  
[...]
             Standard Nuclear Orientation (Angstroms)
    I     Atom           X                Y                Z
 ----------------------------------------------------------------
    1      O       0.3976694270     0.5998769278    -1.2988869204
    2      H       0.0158185899    -0.0632927444    -0.6725972943
    3      H       0.4589019806     1.3936300426    -0.7659218959
    4      O      -0.4186890694    -0.5849514889     1.1665058993
    5      H      -1.1357758039    -0.2387737461     1.7536227919
    6      H       0.0324885588    -1.2899008669     1.6881647923
 ----------------------------------------------------------------
 Nuclear Repulsion Energy =          36.52829038 hartrees
 There are       10 alpha and       10 beta electrons

                       Distance Matrix (Angstroms)
             O (  1)   H (  2)   H (  3)   O (  4)   H (  5)
   H (  2)  0.988859
   H (  3)  0.958042  1.525666
   O (  4)  2.854544  1.960415  2.901591
   H (  5)  3.517471  2.691376  3.399389  0.989322
   H (  6)  3.553462  2.660459  3.661381  0.986227  1.572894
 
 Applying Cartesian multipole field
    Component          Value
    ---------          -----
     (2,0,0)        1.00000E-11
     (0,2,0)        2.00000E-10
     (0,0,2)       -3.00000E-10
 Nucleus-field energy     =    -0.0000000268 hartrees
 Extrapolating the Fock matrix using 12 points and a 6th-order polynomial
 Skip SCF guess (diagonalize extrapolated Fock matrix instead)
 SCF convergence criterion is 10**(-8)

 -----------------------------------------------------------------------
  General SCF calculation program by
  Eric Jon Sundstrom, Paul Horn, Yuezhi Mao, Dmitri Zuev, Alec White,
  David Stuck, Shaama M.S., Shane Yost, Joonho Lee, David Small,
  Daniel Levine, Susi Lehtola, Hugh Burton, Evgeny Epifanovsky,
  Bang C. Huynh
 -----------------------------------------------------------------------
 Exchange:     0.2000 Hartree-Fock + 0.0800 Slater + 0.7200 B88
 Correlation:  0.1900 VWN1RPA + 0.8100 LYP
 Using SG-1 standard quadrature grid
 A restricted SCF calculation will be
 performed using DIIS
 SCF converges when DIIS error is below 1.0e-08
 ---------------------------------------
  Cycle       Energy         DIIS error
 ---------------------------------------
    1    -152.8308131744      9.19e-04  
    2    -152.8259482837      1.58e-04  
    3    -152.8259515088      7.95e-05  
    4    -152.8259523191      3.11e-05  
    5    -152.8259524407      3.07e-06  
    6    -152.8259524422      1.03e-06  
    7    -152.8259524424      5.36e-07  
    8    -152.8259524424      4.53e-08  
    9    -152.8259524424      2.37e-09  Convergence criterion met
 ---------------------------------------
 SCF time:   CPU 0.96s  wall 1.00s 
 SCF   energy in the final basis set =     -152.8259524424
 Total energy in the final basis set =     -152.8259524424
 Calculating analytic gradient of the SCF energy
 Gradient of SCF Energy
            1           2           3           4           5           6
    1   0.0062883  -0.0064482  -0.0005089   0.0060492  -0.0140968   0.0087164
    2   0.0187812  -0.0128878  -0.0068503   0.0046801   0.0084616  -0.0121848
    3   0.0008193   0.0066546  -0.0067926  -0.0184733   0.0103180   0.0074741
 Max gradient component =       1.878E-02
 RMS gradient           =       9.986E-03
 Gradient time:  CPU 0.30 s  wall 0.30 s
 Time for this dynamics step: 1.3 s (CPU) 1.3 s (wall)

TIME STEP #997 (t = 19920.000 a.u. = 481.84176 fs)
--------------------------------------
 Instantaneous Temperature = 173.3 K
 ----------------------------------------------------------------
             Standard Nuclear Orientation (Angstroms)
    I     Atom           X                Y                Z
 ----------------------------------------------------------------
    1      O       0.3965698756     0.5992464898    -1.2986350826
    2      H       0.0041743443    -0.0553755090    -0.6815807181
    3      H       0.4492130911     1.3954532959    -0.7674430923
    4      O      -0.4163532938    -0.5854376229     1.1670410224
    5      H      -1.1339492483    -0.2417325921     1.7526271272
    6      H       0.0323754650    -1.2789617876     1.6871755227
 ----------------------------------------------------------------
 Nuclear Repulsion Energy =          36.60965342 hartrees
 There are       10 alpha and       10 beta electrons

                       Distance Matrix (Angstroms)
             O (  1)   H (  2)   H (  3)   O (  4)   H (  5)
   H (  2)  0.981458
   H (  3)  0.958583  1.519979
   O (  4)  2.853748  1.968556  2.900924
   H (  5)  3.515670  2.693589  3.396695  0.987921
   H (  6)  3.546177  2.666264  3.653957  0.976152  1.562191
 
 Applying Cartesian multipole field
    Component          Value
    ---------          -----
     (2,0,0)        1.00000E-11
     (0,2,0)        2.00000E-10
     (0,0,2)       -3.00000E-10
 Nucleus-field energy     =    -0.0000000268 hartrees
 Extrapolating the Fock matrix using 12 points and a 6th-order polynomial
 Skip SCF guess (diagonalize extrapolated Fock matrix instead)
 SCF convergence criterion is 10**(-8)

 -----------------------------------------------------------------------
  General SCF calculation program by
  Eric Jon Sundstrom, Paul Horn, Yuezhi Mao, Dmitri Zuev, Alec White,
  David Stuck, Shaama M.S., Shane Yost, Joonho Lee, David Small,
  Daniel Levine, Susi Lehtola, Hugh Burton, Evgeny Epifanovsky,
  Bang C. Huynh
 -----------------------------------------------------------------------
 Exchange:     0.2000 Hartree-Fock + 0.0800 Slater + 0.7200 B88
 Correlation:  0.1900 VWN1RPA + 0.8100 LYP
 Using SG-1 standard quadrature grid
 A restricted SCF calculation will be
 performed using DIIS
 SCF converges when DIIS error is below 1.0e-08
 ---------------------------------------
  Cycle       Energy         DIIS error
 ---------------------------------------
    1    -152.8330243938      1.12e-03  
    2    -152.8263796228      1.89e-04  
    3    -152.8263836836      1.09e-04  
    4    -152.8263850465      4.82e-05  
    5    -152.8263853427      2.55e-06  
    6    -152.8263853438      1.48e-06  
    7    -152.8263853441      6.36e-07  
    8    -152.8263853441      5.19e-08  
    9    -152.8263853441      2.52e-09  Convergence criterion met
 ---------------------------------------
 SCF time:   CPU 0.96s  wall 1.00s 
 SCF   energy in the final basis set =     -152.8263853441
 Total energy in the final basis set =     -152.8263853441
 Calculating analytic gradient of the SCF energy
 Gradient of SCF Energy
            1           2           3           4           5           6
    1   0.0040660  -0.0043589  -0.0004944   0.0097563  -0.0132046   0.0042356
    2   0.0138544  -0.0082502  -0.0064529  -0.0013059   0.0077427  -0.0055882
    3   0.0041713   0.0027138  -0.0062340  -0.0137348   0.0099242   0.0031596
 Max gradient component =       1.385E-02
 RMS gradient           =       7.741E-03
 Gradient time:  CPU 0.30 s  wall 0.30 s
 Time for this dynamics step: 1.3 s (CPU) 1.3 s (wall)

TIME STEP #998 (t = 19940.000 a.u. = 482.32554 fs)
--------------------------------------
 Instantaneous Temperature = 188.0 K
 ----------------------------------------------------------------
             Standard Nuclear Orientation (Angstroms)
    I     Atom           X                Y                Z
 ----------------------------------------------------------------
    1      O       0.3954408061     0.5985154727    -1.2984135273
    2      H      -0.0069676825    -0.0465077218    -0.6908768109
    3      H       0.4395811696     1.3980200232    -0.7682460249
    4      O      -0.4140883463    -0.5859142764     1.1676758564
    5      H      -1.1306013087    -0.2455835244     1.7504880295
    6      H       0.0317743617    -1.2673788568     1.6858222172
 ----------------------------------------------------------------
 Nuclear Repulsion Energy =          36.70443560 hartrees
 There are       10 alpha and       10 beta electrons

                       Distance Matrix (Angstroms)
             O (  1)   H (  2)   H (  3)   O (  4)   H (  5)
   H (  2)  0.973185
   H (  3)  0.960330  1.513953
   O (  4)  2.853035  1.977606  2.900438
   H (  5)  3.512422  2.694893  3.392776  0.984320
   H (  6)  3.538287  2.672214  3.645972  0.965227  1.548988
 
 Applying Cartesian multipole field
    Component          Value
    ---------          -----
     (2,0,0)        1.00000E-11
     (0,2,0)        2.00000E-10
     (0,0,2)       -3.00000E-10
 Nucleus-field energy     =    -0.0000000269 hartrees
 Extrapolating the Fock matrix using 12 points and a 6th-order polynomial
 Skip SCF guess (diagonalize extrapolated Fock matrix instead)
 SCF convergence criterion is 10**(-8)

 -----------------------------------------------------------------------
  General SCF calculation program by
  Eric Jon Sundstrom, Paul Horn, Yuezhi Mao, Dmitri Zuev, Alec White,
  David Stuck, Shaama M.S., Shane Yost, Joonho Lee, David Small,
  Daniel Levine, Susi Lehtola, Hugh Burton, Evgeny Epifanovsky,
  Bang C. Huynh
 -----------------------------------------------------------------------
 Exchange:     0.2000 Hartree-Fock + 0.0800 Slater + 0.7200 B88
 Correlation:  0.1900 VWN1RPA + 0.8100 LYP
 Using SG-1 standard quadrature grid
 A restricted SCF calculation will be
 performed using DIIS
 SCF converges when DIIS error is below 1.0e-08
 ---------------------------------------
  Cycle       Energy         DIIS error
 ---------------------------------------
    1    -152.8343921008      1.26e-03  
    2    -152.8266122488      2.11e-04  
    3    -152.8266166931      1.37e-04  
    4    -152.8266187584      5.91e-05  
    5    -152.8266192042      2.65e-06  
    6    -152.8266192054      1.55e-06  
    7    -152.8266192057      6.74e-07  
    8    -152.8266192057      5.83e-08  
    9    -152.8266192057      2.84e-09  Convergence criterion met
 ---------------------------------------
 SCF time:   CPU 0.96s  wall 0.00s 
 SCF   energy in the final basis set =     -152.8266192057
 Total energy in the final basis set =     -152.8266192057
 Calculating analytic gradient of the SCF energy
 Gradient of SCF Energy
            1           2           3           4           5           6
    1   0.0011743  -0.0015994  -0.0004791   0.0128449  -0.0108851  -0.0010556
    2   0.0071137  -0.0027815  -0.0050696  -0.0075716   0.0063008   0.0020081
    3   0.0074154  -0.0018558  -0.0049372  -0.0071469   0.0084726  -0.0019481
 Max gradient component =       1.284E-02
 RMS gradient           =       6.161E-03
 Gradient time:  CPU 0.30 s  wall 0.30 s
 Time for this dynamics step: 1.3 s (CPU) 1.3 s (wall)

TIME STEP #999 (t = 19960.000 a.u. = 482.80931 fs)
--------------------------------------
 Instantaneous Temperature = 195.9 K
 ----------------------------------------------------------------
             Standard Nuclear Orientation (Angstroms)
    I     Atom           X                Y                Z
 ----------------------------------------------------------------
    1      O       0.3943032116     0.5977328120    -1.2982458054
    2      H      -0.0179254333    -0.0373194601    -0.6999590908
    3      H       0.4300044436     1.4011708490    -0.7684801133
    4      O      -0.4119166491    -0.5863359623     1.1683625749
    5      H      -1.1259992260    -0.2501604127     1.7473727494
    6      H       0.0312948820    -1.2560272967     1.6846933680
 ----------------------------------------------------------------
 Nuclear Repulsion Energy =          36.80287211 hartrees
 There are       10 alpha and       10 beta electrons

                       Distance Matrix (Angstroms)
             O (  1)   H (  2)   H (  3)   O (  4)   H (  5)
   H (  2)  0.964972
   H (  3)  0.963036  1.508175
   O (  4)  2.852397  1.986775  2.900064
   H (  5)  3.507996  2.694914  3.387854  0.978867
   H (  6)  3.530740  2.678477  3.638369  0.954736  1.534610
 
 Applying Cartesian multipole field
    Component          Value
    ---------          -----
     (2,0,0)        1.00000E-11
     (0,2,0)        2.00000E-10
     (0,0,2)       -3.00000E-10
 Nucleus-field energy     =    -0.0000000269 hartrees
 Extrapolating the Fock matrix using 12 points and a 6th-order polynomial
 Skip SCF guess (diagonalize extrapolated Fock matrix instead)
 SCF convergence criterion is 10**(-8)

 -----------------------------------------------------------------------
  General SCF calculation program by
  Eric Jon Sundstrom, Paul Horn, Yuezhi Mao, Dmitri Zuev, Alec White,
  David Stuck, Shaama M.S., Shane Yost, Joonho Lee, David Small,
  Daniel Levine, Susi Lehtola, Hugh Burton, Evgeny Epifanovsky,
  Bang C. Huynh
 -----------------------------------------------------------------------
 Exchange:     0.2000 Hartree-Fock + 0.0800 Slater + 0.7200 B88
 Correlation:  0.1900 VWN1RPA + 0.8100 LYP
 Using SG-1 standard quadrature grid
 A restricted SCF calculation will be
 performed using DIIS
 SCF converges when DIIS error is below 1.0e-08
 ---------------------------------------
  Cycle       Energy         DIIS error
 ---------------------------------------
    1    -152.8345995087      1.31e-03  
    2    -152.8265192426      2.18e-04  
    3    -152.8265233986      1.52e-04  
    4    -152.8265259758      6.22e-05  
    5    -152.8265264694      2.69e-06  
    6    -152.8265264706      1.48e-06  
    7    -152.8265264708      6.53e-07  
    8    -152.8265264709      6.16e-08  
    9    -152.8265264709      3.04e-09  Convergence criterion met
 ---------------------------------------
 SCF time:   CPU 0.97s  wall 1.00s 
 SCF   energy in the final basis set =     -152.8265264709
 Total energy in the final basis set =     -152.8265264709
 Calculating analytic gradient of the SCF energy
 Gradient of SCF Energy
            1           2           3           4           5           6
    1  -0.0020741   0.0015537  -0.0004994   0.0148804  -0.0072453  -0.0066153
    2  -0.0006514   0.0029608  -0.0029381  -0.0133718   0.0042248   0.0097756
    3   0.0102839  -0.0065843  -0.0031016   0.0006523   0.0060304  -0.0072808
 Max gradient component =       1.488E-02
 RMS gradient           =       7.005E-03
 Gradient time:  CPU 0.30 s  wall 0.30 s
 Time for this dynamics step: 1.3 s (CPU) 1.3 s (wall)

TIME STEP #1000 (t = 19980.000 a.u. = 483.29309 fs)
--------------------------------------
 Instantaneous Temperature = 192.7 K
 ----------------------------------------------------------------
             Standard Nuclear Orientation (Angstroms)
    I     Atom           X                Y                Z
 ----------------------------------------------------------------
    1      O       0.3931806745     0.5969548802    -1.2981527420
    2      H      -0.0290621989    -0.0284723293    -0.7082827559
    3      H       0.4204852585     1.4046601885    -0.7683568474
    4      O      -0.4098529795    -0.5866605729     1.1690445581
    5      H      -1.1205623642    -0.2552240699     1.7435626659
    6      H       0.0315775922    -1.2458020476     1.6844033834
 ----------------------------------------------------------------
 Nuclear Repulsion Energy =          36.89349801 hartrees
 There are       10 alpha and       10 beta electrons

                       Distance Matrix (Angstroms)
             O (  1)   H (  2)   H (  3)   O (  4)   H (  5)
   H (  2)  0.957807
   H (  3)  0.966342  1.503187
   O (  4)  2.851819  1.995228  2.899714
   H (  5)  3.502807  2.693387  3.382275  0.972126
   H (  6)  3.524507  2.685240  3.632111  0.946004  1.520582
 
 Applying Cartesian multipole field
    Component          Value
    ---------          -----
     (2,0,0)        1.00000E-11
     (0,2,0)        2.00000E-10
     (0,0,2)       -3.00000E-10
 Nucleus-field energy     =    -0.0000000269 hartrees
 Extrapolating the Fock matrix using 12 points and a 6th-order polynomial
 Skip SCF guess (diagonalize extrapolated Fock matrix instead)
 SCF convergence criterion is 10**(-8)

 -----------------------------------------------------------------------
  General SCF calculation program by
  Eric Jon Sundstrom, Paul Horn, Yuezhi Mao, Dmitri Zuev, Alec White,
  David Stuck, Shaama M.S., Shane Yost, Joonho Lee, David Small,
  Daniel Levine, Susi Lehtola, Hugh Burton, Evgeny Epifanovsky,
  Bang C. Huynh
 -----------------------------------------------------------------------
 Exchange:     0.2000 Hartree-Fock + 0.0800 Slater + 0.7200 B88
 Correlation:  0.1900 VWN1RPA + 0.8100 LYP
 Using SG-1 standard quadrature grid
 A restricted SCF calculation will be
 performed using DIIS
 SCF converges when DIIS error is below 1.0e-08
 ---------------------------------------
  Cycle       Energy         DIIS error
 ---------------------------------------
    1    -152.8335323209      1.23e-03  
    2    -152.8261209069      2.05e-04  
    3    -152.8261241764      1.53e-04  
    4    -152.8261268010      5.83e-05  
    5    -152.8261272339      2.49e-06  
    6    -152.8261272350      1.28e-06  
    7    -152.8261272352      5.76e-07  
    8    -152.8261272352      6.17e-08  
    9    -152.8261272352      3.00e-09  Convergence criterion met
 ---------------------------------------
 SCF time:   CPU 0.97s  wall 1.00s 
 SCF   energy in the final basis set =     -152.8261272352
 Total energy in the final basis set =     -152.8261272352
 Calculating analytic gradient of the SCF energy
 Gradient of SCF Energy
            1           2           3           4           5           6
    1  -0.0052161   0.0046627  -0.0005819   0.0153364  -0.0025216  -0.0116794
    2  -0.0083944   0.0082632  -0.0003963  -0.0177448   0.0016702   0.0166021
    3   0.0124245  -0.0108576  -0.0009865   0.0086912   0.0027546  -0.0120263
 Max gradient component =       1.774E-02
 RMS gradient           =       9.605E-03
 Gradient time:  CPU 0.30 s  wall 0.30 s
 Time for this dynamics step: 1.3 s (CPU) 1.3 s (wall)

=============== TIME STEPS COMPLETED ==================

Step-to-Step energy fluctuations, |E(n) - E(n-1)|
Mean: 5.824e-09   Max: 1.842e-05   RMS: 7.241e-06
Overall energy fluctuations, |E(n) - E(0)|
Mean: 2.538e-05   Max: 4.903e-05   RMS: 1.050e-05   RMS(dE)/RMS(dV): 9.717e-03
Kinetic energy fluctuations, |T(n) - V(0)|
Mean: -2.946e-03   Max: 5.815e-03   RMS: 1.077e-03
Potential energy fluctuations, |V(n) - V(0)|
Mean: 2.971e-03   Max: 5.861e-03   RMS: 1.081e-03


 Total job time:  1289.08s(wall), 1287.41s(cpu) 
 Wed Feb  8 13:52:26 2023

        *************************************************************
        *                                                           *
        *  Thank you very much for using Q-Chem.  Have a nice day.  *
        *                                                           *
        *************************************************************


You are running Q-Chem version: 6.0.1

#
# job setting
#
local host:  mu3c208
current dir: /home1/jmsmith/.webmo-18596/jmsmith/192201
input file:  input.inp
output file: output.out
nprocs     : 0
nthreads   : 1
#
# qchem installation setting
#
QC:          /usr/local/qchem
QCAUX:       /usr/local/qchem/qcaux
QCPROG:      /usr/local/qchem/exe/qcprog.exe_s
QCPROG_S:    /usr/local/qchem/exe/qcprog.exe_s
PARALLEL:    -DSERIAL
QCMPI:       seq
#
# qchem directory setting
#
qcrun:       qchem2610488
QCSCRATCH:   /scratch/webmo-18596/192201
QCLOCALSCR:  
QCTMPDIR:    /scratch/webmo-18596/192201
QCFILEPREF:  /scratch/webmo-18596/192201/qchem2610488
QCSAVEDIR:   
workdirs:    /scratch/webmo-18596/192201/qchem2610488
workdir0:    /scratch/webmo-18596/192201/qchem2610488
partmpdirs =  
#
# parallel setting
#
QCRSH:           ssh
QCMPI:           seq
QCMPIRUN:        
QCMACHINEFILE:   /scratch/webmo-18596/192201/qchem2610488/hostfile

#
# env setting
#
exported envs:   QC QCAUX QCSCRATCH QCRUNNAME QCFILEPREF QCPROG QCPROG_S GUIFILE
remove work dirs /scratch/webmo-18596/192201/qchem2610488.0 -- /scratch/webmo-18596/192201/qchem2610488.-1
rm -rf /scratch/webmo-18596/192201/qchem2610488
