4
Energy=-56.54792928 Properties=species:S:1:pos:R:3:forces:R:3 Time=0.0000
N       0.00000000      0.00000000      0.11648900     -0.00000000     -0.00000021      0.00181143
H       0.00000000      0.93973100     -0.27180700      0.00000000      0.00065850     -0.00060323
H       0.81383100     -0.46986500     -0.27180700      0.00057029     -0.00032944     -0.00060318
H      -0.81383100     -0.46986500     -0.27180700     -0.00057029     -0.00032944     -0.00060318
4
Energy=-56.54650286 Properties=species:S:1:pos:R:3:forces:R:3 Time=2.5000
N      -0.00664505     -0.00050078      0.12008840      0.01432104     -0.00471394     -0.00441612
H       0.04207395      0.93309697     -0.28331570     -0.00455829      0.00153441     -0.00002610
H       0.85618929     -0.44073274     -0.29013562     -0.01120500      0.00147085      0.00565176
H      -0.80592519     -0.48540476     -0.29198565      0.00144092      0.00170842     -0.00120904
4
Energy=-56.54386864 Properties=species:S:1:pos:R:3:forces:R:3 Time=5.0000
N      -0.01181582     -0.00151990      0.12326845      0.02149213     -0.00411736     -0.00853595
H       0.07769285      0.92864225     -0.29504856     -0.00850020      0.00099300      0.00117106
H       0.88203176     -0.40898884     -0.30000912     -0.01591882     -0.00030693      0.00875071
H      -0.79553679     -0.49853281     -0.31456718      0.00292634      0.00343183     -0.00138566
4
Energy=-56.54262968 Properties=species:S:1:pos:R:3:forces:R:3 Time=7.5000
N      -0.01470195     -0.00304314      0.12558816      0.02095802      0.00013537     -0.00977925
H       0.10081952      0.92563224     -0.30530726     -0.01132219      0.00024244      0.00258215
H       0.88347870     -0.37671223     -0.29616749     -0.01271298     -0.00458686      0.00842588
H      -0.78000887     -0.50663244     -0.34038253      0.00307644      0.00420918     -0.00122877
4
Energy=-56.54271956 Properties=species:S:1:pos:R:3:forces:R:3 Time=10.0000
N      -0.01530381     -0.00462450      0.12689655      0.01242077      0.00603092     -0.00753811
H       0.10657022      0.92298377     -0.31189727     -0.01233728      0.00035877      0.00358197
H       0.86471453     -0.35040568     -0.27843169     -0.00183504     -0.01015512      0.00479945
H      -0.75863692     -0.50831577     -0.36970740      0.00175151      0.00376528     -0.00084360
4
Energy=-56.54277265 Properties=species:S:1:pos:R:3:forces:R:3 Time=12.5000
N      -0.01449382     -0.00557244      0.12738916     -0.00103669      0.01110014     -0.00314106
H       0.09237747      0.92091214     -0.31296469     -0.01091982      0.00132121      0.00380064
H       0.84237296     -0.33952789     -0.25199271      0.01241783     -0.01466306     -0.00034213
H      -0.73336327     -0.50394905     -0.40192253     -0.00046105      0.00224238     -0.00031812
4
Energy=-56.54405590 Properties=species:S:1:pos:R:3:forces:R:3 Time=15.0000
N      -0.01370479     -0.00528845      0.12749713     -0.00808489      0.01078747     -0.00162507
H       0.05977408      0.92095362     -0.30786957     -0.00701474      0.00240580      0.00327597
H       0.83837047     -0.35172992     -0.22448339      0.01751051     -0.01339754     -0.00202927
H      -0.70772644     -0.49573346     -0.43602685     -0.00240983      0.00020453      0.00037700
4
Energy=-56.54659273 Properties=species:S:1:pos:R:3:forces:R:3 Time=17.5000
N      -0.01372256     -0.00379391      0.12736416     -0.00276587      0.00305581     -0.00509094
H       0.01492781      0.92487551     -0.29728316     -0.00155779      0.00291098      0.00245423
H       0.86089083     -0.38524593     -0.19885960      0.00729058     -0.00445374      0.00113538
H      -0.68515724     -0.48690550     -0.47039086     -0.00296700     -0.00151424      0.00150044
4
Energy=-56.54623067 Properties=species:S:1:pos:R:3:forces:R:3 Time=20.0000
N      -0.01405132     -0.00193174      0.12662513      0.00463524     -0.00639107     -0.00922596
H      -0.03313497      0.93346372     -0.28246999      0.00392407      0.00221845      0.00199496
H       0.89526718     -0.42630972     -0.17107123     -0.00659265      0.00651362      0.00406771
H      -0.66690549     -0.48030568     -0.50272567     -0.00196604     -0.00234110      0.00316310
4
Energy=-56.54346856 Properties=species:S:1:pos:R:3:forces:R:3 Time=22.5000
N      -0.01389721     -0.00075465      0.12480682      0.00622644     -0.01176258     -0.01122889
H      -0.07563284      0.94564001     -0.26407185      0.00828415      0.00018534      0.00217233
H       0.92024892     -0.45780911     -0.13658278     -0.01413587      0.01391663      0.00421679
H      -0.65153314     -0.47733842     -0.53034858     -0.00037455     -0.00233828      0.00483936
4
Energy=-56.54213645 Properties=species:S:1:pos:R:3:forces:R:3 Time=25.0000
N      -0.01305635     -0.00089284      0.12163079      0.00167893     -0.01169501     -0.01062402
H      -0.10578052      0.95838473     -0.24157019      0.01095810     -0.00228578      0.00261781
H       0.92364226     -0.46785659     -0.09448960     -0.01328243      0.01596773      0.00236580
H      -0.63646530     -0.47811295     -0.55081371      0.00064487     -0.00198656      0.00564036
4
Energy=-56.54322780 Properties=species:S:1:pos:R:3:forces:R:3 Time=27.5000
N      -0.01204013     -0.00237995      0.11711227     -0.00859997     -0.00659567     -0.00721247
H      -0.11907901      0.96792370     -0.21404827      0.01156981     -0.00367130      0.00270410
H       0.90634754     -0.45261907     -0.04720630     -0.00347721      0.01205314     -0.00037654
H      -0.61999613     -0.48222161     -0.56283441      0.00050749     -0.00178644      0.00488475
4
Energy=-56.54407743 Properties=species:S:1:pos:R:3:forces:R:3 Time=30.0000
N      -0.01205576     -0.00465557      0.11165007     -0.02256297      0.00131811     -0.00169398
H      -0.11397137      0.97197469     -0.18152737      0.00989515     -0.00269748      0.00190058
H       0.88387330     -0.41784155      0.00067079      0.01321128      0.00336953     -0.00264251
H      -0.60241501     -0.48942545     -0.56733515     -0.00054272     -0.00198927      0.00243493
4
Energy=-56.54444096 Properties=species:S:1:pos:R:3:forces:R:3 Time=32.5000
N      -0.01465247     -0.00686069      0.10588648     -0.02741219      0.00481388      0.00383433
H      -0.09278247      0.97199524     -0.14543583      0.00624043      0.00064999      0.00003526
H       0.88175222     -0.37659162      0.04538710      0.02274466     -0.00312977     -0.00278701
H      -0.58540132     -0.50004962     -0.56805890     -0.00157346     -0.00233351     -0.00108177
4
Energy=-56.54630055 Properties=species:S:1:pos:R:3:forces:R:3 Time=35.0000
N      -0.02030373     -0.00861528      0.10048039     -0.01126125      0.00036497      0.00860368
H      -0.06116535      0.97307637     -0.10881267      0.00164744      0.00390905     -0.00234367
H       0.91381513     -0.33877703      0.08633014      0.01105388     -0.00235534     -0.00207207
H      -0.57055496     -0.51455831     -0.57050828     -0.00143989     -0.00191870     -0.00418901
4
Energy=-56.54564669 Properties=species:S:1:pos:R:3:forces:R:3 Time=37.5000
N      -0.02728330     -0.01033211      0.09602478      0.01102842     -0.00324559      0.01247574
H      -0.02649773      0.98003392     -0.07559337     -0.00274915      0.00338830     -0.00433403
H       0.96324389     -0.30430716      0.12405949     -0.00878571     -0.00031726     -0.00291366
H      -0.55766721     -0.53212310     -0.57954789      0.00050683      0.00017407     -0.00522708
4
Energy=-56.54203651 Properties=species:S:1:pos:R:3:forces:R:3 Time=40.0000
N      -0.03314622     -0.01239596      0.09296690      0.02346326     -0.00142375      0.01412598
H       0.00415248      0.99209054     -0.04900685     -0.00652020     -0.00099097     -0.00570043
H       1.00004336     -0.27038463      0.15735261     -0.02051310     -0.00123334     -0.00450013
H      -0.54364938     -0.54941807     -0.59694029      0.00356968      0.00364851     -0.00392579
4
Energy=-56.53975592 Properties=species:S:1:pos:R:3:forces:R:3 Time=42.5000
N      -0.03647556     -0.01465975      0.09149174      0.02431734      0.00274754      0.01353075
H       0.02491327      1.00283414     -0.03112304     -0.00939786     -0.00535835     -0.00662701
H       1.00536070     -0.23793322      0.18414953     -0.02100313     -0.00431517     -0.00528874
H      -0.52346652     -0.56114985     -0.62112760      0.00608484      0.00692700     -0.00161565
4
Energy=-56.54060489 Properties=species:S:1:pos:R:3:forces:R:3 Time=45.0000
N      -0.03713173     -0.01669235      0.09155982      0.01429529      0.00641658      0.01121758
H       0.03109046      1.00557864     -0.02346621     -0.01084162     -0.00642761     -0.00703690
H       0.97747813     -0.21147277      0.20346388     -0.01017751     -0.00838339     -0.00428332
H      -0.49264438     -0.56210239     -0.64905100      0.00672473      0.00839423      0.00010232
4
Energy=-56.54196360 Properties=species:S:1:pos:R:3:forces:R:3 Time=47.5000
N      -0.03620364     -0.01804121      0.09294869     -0.00511134      0.00850619      0.00761665
H       0.01985259      0.99834043     -0.02707447     -0.01026437     -0.00357259     -0.00667581
H       0.93326118     -0.19798864      0.21660298      0.01018601     -0.01219112     -0.00110079
H      -0.45008649     -0.54959686     -0.67788820      0.00518796      0.00725778      0.00016110
4
Energy=-56.54294625 Properties=species:S:1:pos:R:3:forces:R:3 Time=50.0000
N      -0.03582073     -0.01844171      0.09527167     -0.01997777      0.00732712      0.00465378
H      -0.00817276      0.98537217     -0.04159681     -0.00743785      0.00142584     -0.00536135
H       0.90420745     -0.20383050      0.22822603      0.02507622     -0.01267669      0.00221124
H      -0.39833067     -0.52521288     -0.70727401      0.00233908      0.00392543     -0.00150237
4
Energy=-56.54635042 Properties=species:S:1:pos:R:3:forces:R:3 Time=52.5000
N      -0.03755845     -0.01803541      0.09820185     -0.01310072      0.00112421      0.00401251
H      -0.04854445      0.97438737     -0.06496076     -0.00289553      0.00519736     -0.00295692
H       0.91235648     -0.22957444      0.24312507      0.01612458     -0.00644982      0.00204301
H      -0.34196418     -0.49411872     -0.73952997     -0.00012804      0.00012916     -0.00309960
4
Energy=-56.54752548 Properties=species:S:1:pos:R:3:forces:R:3 Time=55.0000
N      -0.04076169     -0.01750364      0.10160552      0.00287283     -0.00606056      0.00164838
H      -0.09384261      0.97123396     -0.09315351      0.00217416      0.00477529      0.00058117
H       0.94541630     -0.26552790      0.26113033     -0.00399337      0.00339399     -0.00052743
H      -0.28521682     -0.46238864     -0.77664397     -0.00105388     -0.00210910     -0.00170340
4
Energy=-56.54407417 Properties=species:S:1:pos:R:3:forces:R:3 Time=57.5000
N      -0.04372672     -0.01764021      0.10517023      0.01102284     -0.00925869     -0.00550785
H      -0.13589302      0.97536419     -0.12044760      0.00660777      0.00072301      0.00473055
H       0.97325745     -0.29643789      0.27849128     -0.01648550      0.01104662     -0.00225367
H      -0.22980862     -0.43369861     -0.81625147     -0.00114559     -0.00251014      0.00303145
4
Energy=-56.54046629 Properties=species:S:1:pos:R:3:forces:R:3 Time=60.0000
N      -0.04550615     -0.01883342      0.10810653      0.01041337     -0.00859838     -0.01449635
H      -0.16776649      0.98071685     -0.14035107      0.00950253     -0.00348241      0.00836707
H       0.97580812     -0.31014609      0.29261272     -0.01820004      0.01443028     -0.00195501
H      -0.17576259     -0.40874886     -0.85127763     -0.00171598     -0.00234970      0.00808353
4
Energy=-56.53994953 Properties=species:S:1:pos:R:3:forces:R:3 Time=62.5000
N      -0.04615263     -0.02105124      0.10940789      0.00283745     -0.00567276     -0.02159951
H      -0.18496260      0.98082563     -0.14710785      0.01021362     -0.00497093      0.01047911
H       0.94971051     -0.30096824      0.30412352     -0.00998105      0.01330919      0.00071730
H      -0.12348929     -0.38720353     -0.87412205     -0.00306963     -0.00266677      0.01040315
4
Energy=-56.54103372 Properties=species:S:1:pos:R:3:forces:R:3 Time=65.0000
N      -0.04654108     -0.02398376      0.10821812     -0.01116728     -0.00189108     -0.02498642
H      -0.18608295      0.97328279     -0.13706910      0.00844009     -0.00253136      0.01043493
H       0.90779821     -0.27022858      0.31741714      0.00726004      0.00810754      0.00590391
H      -0.07506208     -0.36963865     -0.88092856     -0.00453252     -0.00368645      0.00864812
4
Energy=-56.54179200 Properties=species:S:1:pos:R:3:forces:R:3 Time=67.5000
N      -0.04823129     -0.02721573      0.10411301     -0.02203889     -0.00066952     -0.02227752
H      -0.17365361      0.96191950     -0.11003957      0.00454604      0.00334273      0.00808572
H       0.87688795     -0.22572237      0.34066243      0.02254063      0.00236389      0.01109444
H      -0.03309681     -0.35786049     -0.87416578     -0.00504675     -0.00503705      0.00309830
4
Energy=-56.54466139 Properties=species:S:1:pos:R:3:forces:R:3 Time=70.0000
N      -0.05233057     -0.03060943      0.09742432     -0.01266528     -0.00304226     -0.01004807
H      -0.15371043      0.95584429     -0.06961742     -0.00006596      0.00881953      0.00423878
H       0.87943325     -0.17624463      0.38146897      0.01664750     -0.00002099      0.00981285
H       0.00137632     -0.35409483     -0.86245463     -0.00391602     -0.00575699     -0.00400335
4
Energy=-56.54657598 Properties=species:S:1:pos:R:3:forces:R:3 Time=72.5000
N      -0.05782963     -0.03434085      0.08955147      0.00855999     -0.00139629      0.00628024
H      -0.13359533      0.96321780     -0.02201749     -0.00368989      0.00777179      0.00017724
H       0.90725617     -0.12642583      0.43759888     -0.00324375     -0.00194516      0.00159777
H       0.02985115     -0.35942656     -0.85678941     -0.00162651     -0.00443029     -0.00805561
4
Energy=-56.54388755 Properties=species:S:1:pos:R:3:forces:R:3 Time=75.0000
N      -0.06242369     -0.03819300      0.08231649      0.02274217      0.00594353      0.01610669
H      -0.11923275      0.98236167      0.02606918     -0.00593903     -0.00002318     -0.00385364
H       0.93084523     -0.07980961      0.49659601     -0.01712574     -0.00543663     -0.00666960
H       0.05573670     -0.37164833     -0.86334226      0.00032230     -0.00048395     -0.00558350
4
Energy=-56.53974366 Properties=species:S:1:pos:R:3:forces:R:3 Time=77.5000
N      -0.06447281     -0.04138599      0.07684032      0.02687226      0.01255025      0.01772092
H      -0.11436097      1.00163224      0.06824887     -0.00731964     -0.00795805     -0.00775457
H       0.92800546     -0.04172816      0.54567029     -0.02054204     -0.00909269     -0.01115905
H       0.08217801     -0.38462213     -0.87850552      0.00098955      0.00450011      0.00119228
4
Energy=-56.53834212 Properties=species:S:1:pos:R:3:forces:R:3 Time=80.0000
N      -0.06345469     -0.04319575      0.07331525      0.02258118      0.01478438      0.01428509
H      -0.12137743      1.00883915      0.09858788     -0.00817202     -0.01108685     -0.01069284
H       0.89244513     -0.01776368      0.57793283     -0.01505089     -0.01176970     -0.01076334
H       0.11060643     -0.39063626     -0.89212926      0.00064186      0.00807291      0.00716988
4
Energy=-56.54011334 Properties=species:S:1:pos:R:3:forces:R:3 Time=82.5000
N      -0.05982278     -0.04334178      0.07136160      0.00916564      0.01234441      0.00674628
H      -0.14194612      0.99875064      0.11229743     -0.00851852     -0.00837113     -0.01178103
H       0.83241827     -0.01237163      0.59408488     -0.00068667     -0.01272714     -0.00393762
H       0.14073304     -0.38390049     -0.89485117      0.00004011      0.00875446      0.00897257
4
Energy=-56.54148035 Properties=species:S:1:pos:R:3:forces:R:3 Time=85.0000
N      -0.05511795     -0.04206784      0.07014419     -0.01045519      0.00644488     -0.00327370
H      -0.17669679      0.97538117      0.10723965     -0.00807093     -0.00117532     -0.01045781
H       0.77103251     -0.02746205      0.60484137      0.01841002     -0.01155741      0.00842479
H       0.17149203     -0.36313162     -0.88364089      0.00011583      0.00628859      0.00530653
4
Energy=-56.54322269 Properties=species:S:1:pos:R:3:forces:R:3 Time=87.5000
N      -0.05148867     -0.04002310      0.06861108     -0.01933229      0.00028377     -0.00474829
H      -0.22484968      0.94990129      0.08533254     -0.00635910      0.00638667     -0.00680213
H       0.73728016     -0.06137357      0.62865005      0.02403275     -0.00839915      0.01439045
H       0.20296518     -0.33214076     -0.86424699      0.00165742      0.00172995     -0.00284117
4
Energy=-56.54669361 Properties=species:S:1:pos:R:3:forces:R:3 Time=90.0000
N      -0.04990602     -0.03791036      0.06665132     -0.00895419     -0.00370834      0.00687492
H      -0.28345987      0.93389770      0.05236339     -0.00289511      0.00823882     -0.00176798
H       0.73940697     -0.10880950      0.67382001      0.00794432     -0.00232313      0.00466944
H       0.23745441     -0.29804522     -0.84922527      0.00390397     -0.00220780     -0.00977602
4
Energy=-56.54603181 Properties=species:S:1:pos:R:3:forces:R:3 Time=92.5000
N      -0.04935939     -0.03620165      0.06543176      0.00350605     -0.00506453      0.01301988
H      -0.34668112      0.93025268      0.01644887      0.00233451      0.00268358      0.00338735
H       0.75438407     -0.15991320      0.72632973     -0.00990870      0.00537720     -0.00840326
H       0.27809990     -0.26702656     -0.84888391      0.00406872     -0.00299588     -0.00800496
4
Energy=-56.54179003 Properties=species:S:1:pos:R:3:forces:R:3 Time=95.0000
N      -0.04846803     -0.03506884      0.06560376      0.00916331     -0.00497422      0.00589597
H      -0.40625719      0.93072436     -0.01416721      0.00772542     -0.00486085      0.00764427
H       0.75461626     -0.20265437      0.76623937     -0.01791448      0.01126644     -0.01472526
H       0.32505569     -0.24048427     -0.86057876      0.00102661     -0.00143160      0.00118475
4
Energy=-56.53915126 Properties=species:S:1:pos:R:3:forces:R:3 Time=97.5000
N      -0.04654645     -0.03451136      0.06642190      0.00861882     -0.00473158     -0.00696839
H      -0.45401212      0.92372720     -0.03275794      0.01093581     -0.00896603      0.01028445
H       0.72673522     -0.22779930      0.78343931     -0.01657850      0.01363640     -0.01303640
H       0.37398936     -0.21607486     -0.87056862     -0.00297537      0.00006081      0.00972063
4
Energy=-56.54029264 Properties=species:S:1:pos:R:3:forces:R:3 Time=100.0000
N      -0.04364170     -0.03450455      0.06642222      0.00150313     -0.00456334     -0.02102476
H      -0.48502259      0.90266311     -0.03502484      0.01039522     -0.00752774      0.01086820
H       0.67239685     -0.23151969      0.78066340     -0.00653237      0.01165991     -0.00245198
H       0.41897490     -0.19137146     -0.86554183     -0.00536614      0.00043115      0.01260933
4
Energy=-56.54144532 Properties=species:S:1:pos:R:3:forces:R:3 Time=102.5000
N      -0.04057942     -0.03504559      0.06395490     -0.01056255     -0.00574176     -0.03360655
H      -0.49995518      0.86983115     -0.01983851      0.00556260     -0.00014944      0.00919092
H       0.60761581     -0.21672987      0.77493041      0.00944809      0.00596899      0.01565038
H       0.45613602     -0.16579759     -0.84072010     -0.00444897     -0.00007813      0.00876580
4
Energy=-56.54189145 Properties=species:S:1:pos:R:3:forces:R:3 Time=105.0000
N      -0.03866160     -0.03631335      0.05766783     -0.01532443     -0.01142259     -0.02982288
H      -0.50627177      0.83693096      0.01026704     -0.00172452      0.01031776      0.00578980
H       0.55652266     -0.19185571      0.79358087      0.01643280      0.00170462      0.02474043
H       0.48689526     -0.14014180     -0.80212189      0.00061545     -0.00059999     -0.00070753
4
Energy=-56.54465422 Properties=species:S:1:pos:R:3:forces:R:3 Time=107.5000
N      -0.03840641     -0.03892849      0.04809442     -0.00837448     -0.01633700     -0.00133264
H      -0.51496912      0.81983410      0.04996562     -0.00546288      0.01467505      0.00181716
H       0.52942374     -0.16342172      0.84924645      0.00633191      0.00151823      0.00973627
H       0.51914353     -0.11512645     -0.76446533      0.00750560      0.00014317     -0.01022123
4
Energy=-56.54525558 Properties=species:S:1:pos:R:3:forces:R:3 Time=110.0000
N      -0.03915930     -0.04336066      0.03829376     -0.00287346     -0.01098536      0.02417400
H      -0.53152862      0.82494131      0.09268527     -0.00164302      0.00731802     -0.00268644
H       0.51259351     -0.13251370      0.92025319     -0.00447038      0.00097000     -0.01136776
H       0.56299292     -0.08954044     -0.74201313      0.00898651      0.00269844     -0.01012153
4
Energy=-56.54259050 Properties=species:S:1:pos:R:3:forces:R:3 Time=112.5000
N      -0.04026588     -0.04904496      0.03110760      0.00091517     -0.00046051      0.03019298
H      -0.55046678      0.84154673      0.13107436      0.00483082     -0.00359279     -0.00754854
H       0.48950109     -0.10017299      0.97430875     -0.00762431     -0.00122978     -0.02262808
H       0.62039706     -0.05948604     -0.73460968      0.00187923      0.00528405     -0.00001727
4
Energy=-56.53998113 Properties=species:S:1:pos:R:3:forces:R:3 Time=115.0000
N      -0.04127049     -0.05483864      0.02732061      0.00454114      0.00793612      0.02410919
H      -0.56207189      0.85306947      0.15749937      0.00813544     -0.00966454     -0.01130776
H       0.45455230     -0.06974064      0.99313965     -0.00511830     -0.00408066     -0.02286278
H       0.68090849     -0.02091984     -0.72725270     -0.00755798      0.00581048      0.01006077
4
Energy=-56.54043847 Properties=species:S:1:pos:R:3:forces:R:3 Time=117.5000
N      -0.04177635     -0.05979533      0.02627760      0.00547524      0.01189308      0.01133625
H      -0.56111515      0.84975575      0.16595260      0.00665563     -0.00922709     -0.01299468
H       0.41139796     -0.04567796      0.97612812      0.00129982     -0.00680242     -0.01238113
H       0.73013366      0.02722419     -0.70421231     -0.01343057      0.00413704      0.01403982
4
Energy=-56.54179729 Properties=species:S:1:pos:R:3:forces:R:3 Time=120.0000
N      -0.04168185     -0.06344867      0.02650089      0.00248409      0.01030376     -0.00707516
H      -0.54983429      0.83207921      0.15356205      0.00093676     -0.00315574     -0.01226467
H       0.37033903     -0.03238655      0.94010676      0.01009339     -0.00849236      0.00800220
H       0.75859721      0.08239238     -0.65891441     -0.01351346      0.00134542      0.01133778
4
Energy=-56.54166329 Properties=species:S:1:pos:R:3:forces:R:3 Time=122.5000
N      -0.04130291     -0.06596261      0.02594740     -0.00117118      0.00383515     -0.01916411
H      -0.53723479      0.80953049      0.12139205     -0.00680688      0.00566430     -0.00912190
H       0.34499991     -0.03265684      0.91659935      0.01480224     -0.00856043      0.02514031
H       0.76607091      0.14016338     -0.59555687     -0.00682309     -0.00093761      0.00314567
4
Energy=-56.54311050 Properties=species:S:1:pos:R:3:forces:R:3 Time=125.0000
N      -0.04101493     -0.06803268      0.02338086     -0.00068489     -0.00179773     -0.00808840
H      -0.53532231      0.79554193      0.07436322     -0.01189050      0.01024909     -0.00437353
H       0.34203498     -0.04671104      0.93068933      0.00796028     -0.00709359      0.01925021
H       0.76312282      0.19699240     -0.52696485      0.00461422     -0.00135784     -0.00678827
4
Energy=-56.54398383 Properties=species:S:1:pos:R:3:forces:R:3 Time=127.5000
N      -0.04078151     -0.07024594      0.01993162      0.00273955      0.00017498      0.01096044
H      -0.55187305      0.79683737      0.02007381     -0.01035031      0.00501500      0.00079622
H       0.35134039     -0.07213435      0.97438333     -0.00418423     -0.00382322     -0.00036212
H       0.76712527      0.25189639     -0.46845037      0.01179505     -0.00136779     -0.01139270
4
Energy=-56.54176731 Properties=species:S:1:pos:R:3:forces:R:3 Time=130.0000
N      -0.04019705     -0.07237366      0.01761997      0.00901297      0.00930869      0.01693742
H      -0.58470583      0.80561940     -0.03312103     -0.00404171     -0.00540947      0.00559371
H       0.35444309     -0.10376066      1.01847503     -0.01234915      0.00022232     -0.01447628
H       0.78873383      0.30432762     -0.42723381      0.00737760     -0.00412085     -0.00805335
4
Energy=-56.53870834 Properties=species:S:1:pos:R:3:forces:R:3 Time=132.5000
N      -0.03854551     -0.07342311      0.01718328      0.01566166      0.01823254      0.01193247
H      -0.62434573      0.80601487     -0.07763823      0.00226622     -0.01315667      0.00914570
H       0.33812238     -0.13531897      1.04046254     -0.01502027      0.00340908     -0.01884794
H       0.82174491      0.35009466     -0.39864243     -0.00290567     -0.00848597     -0.00222919
4
Energy=-56.53868554 Properties=species:S:1:pos:R:3:forces:R:3 Time=135.0000
N      -0.03507266     -0.07238925      0.01810519      0.01821719      0.02174742      0.00191131
H      -0.66109068      0.78563858     -0.10792141      0.00562558     -0.01523283      0.01061036
H       0.29761864     -0.16187769      1.03299998     -0.01322086      0.00467825     -0.01404485
H       0.85073799      0.38268307     -0.37371216     -0.01062149     -0.01119469      0.00152499
4
Energy=-56.54225375 Properties=species:S:1:pos:R:3:forces:R:3 Time=137.5000
N      -0.02947126     -0.06884599      0.01922135      0.01576227      0.01896778     -0.01224297
H      -0.68958055      0.74093305     -0.12152536      0.00459956     -0.01138730      0.00929453
H       0.23557809     -0.18142396      1.00379897     -0.00785687      0.00314305      0.00049005
H       0.86343558      0.39771588     -0.34641911     -0.01250549     -0.01072319      0.00245896
4
Energy=-56.54510483 Properties=species:S:1:pos:R:3:forces:R:3 Time=140.0000
N      -0.02202151     -0.06312638      0.01891405      0.01067244      0.00933886     -0.02454446
H      -0.71136973      0.67819929     -0.12044537     -0.00144455     -0.00218417      0.00492169
H       0.16056382     -0.19628221      0.97589309     -0.00189776     -0.00086109      0.01869707
H       0.85672152      0.39584664     -0.31532401     -0.00733006     -0.00629392      0.00092614
4
Energy=-56.54575442 Properties=species:S:1:pos:R:3:forces:R:3 Time=142.5000
N      -0.01333168     -0.05637534      0.01592979      0.00298166     -0.00706044     -0.01684257
H      -0.73581050      0.61201580     -0.11158122     -0.00914092      0.00800062     -0.00109898
H       0.08191927     -0.21235824      0.97611242      0.00107477     -0.00336116      0.02035248
H       0.83905768      0.38431262     -0.28293940      0.00508510      0.00242108     -0.00241023
4
Energy=-56.54457772 Properties=species:S:1:pos:R:3:forces:R:3 Time=145.0000
N      -0.00437244     -0.05042863      0.01115012     -0.01234124     -0.02102417      0.00815982
H      -0.77406032      0.55781661     -0.10429227     -0.00889140      0.01094207     -0.00562960
H       0.00501536     -0.23328245      1.00663812      0.00406352     -0.00145083      0.00207254
H       0.82971830      0.37681914     -0.25433680      0.01716977      0.01153361     -0.00460320
4
Energy=-56.54178053 Properties=species:S:1:pos:R:3:forces:R:3 Time=147.5000
N       0.00318222     -0.04679820      0.00721569     -0.02454464     -0.02116759      0.02377029
H      -0.82533292      0.52033769     -0.10577169      0.00213427      0.00646589     -0.00728636
H      -0.06510534     -0.25641377      1.04091092      0.00886293      0.00198375     -0.01485037
H       0.84613723      0.38699969     -0.23245900      0.01354788      0.01271917     -0.00163434
4
Energy=-56.53829898 Properties=species:S:1:pos:R:3:forces:R:3 Time=150.0000
N       0.00802650     -0.04554964      0.00590451     -0.02324735     -0.01204380      0.02386046
H      -0.87327515      0.49329462     -0.11892115      0.01409516      0.00196601     -0.00714522
H      -0.12119494     -0.27659231      1.05260611      0.01283229      0.00413956     -0.02071911
H       0.88285829      0.41689154     -0.21278688     -0.00368123      0.00593913      0.00400404
4
Energy=-56.53617838 Properties=species:S:1:pos:R:3:forces:R:3 Time=152.5000
N       0.01023678     -0.04571637      0.00731340     -0.01549324     -0.00318746      0.01504785
H      -0.89953121      0.46963306     -0.14383580      0.01957389      0.00062390     -0.00638306
H      -0.15720968     -0.29050689      1.03186902      0.01407389      0.00394850     -0.01587357
H       0.91441831      0.45680630     -0.18671463     -0.01815514     -0.00138464      0.00720977
4
Energy=-56.53809649 Properties=species:S:1:pos:R:3:forces:R:3 Time=155.0000
N       0.01066793     -0.04628946      0.01045409     -0.00567349      0.00290097     -0.00078759
H      -0.89512972      0.44699343     -0.17960212      0.01712914      0.00196392     -0.00569709
H      -0.17119440     -0.29857259      0.98617880      0.01142798      0.00058544     -0.00045731
H       0.91801253      0.49549765     -0.14890138     -0.02288328     -0.00545076      0.00694109
4
Energy=-56.54138300 Properties=species:S:1:pos:R:3:forces:R:3 Time=157.5000
N       0.01044330     -0.04656355      0.01350086      0.00454866      0.00478753     -0.01917664